
                                 *****************
                                 * O   R   C   A *
                                 *****************

                                            #,                                       
                                            ###                                      
                                            ####                                     
                                            #####                                    
                                            ######                                   
                                           ########,                                 
                                     ,,################,,,,,                         
                               ,,#################################,,                 
                          ,,##########################################,,             
                       ,#########################################, ''#####,          
                    ,#############################################,,   '####,        
                  ,##################################################,,,,####,       
                ,###########''''           ''''###############################       
              ,#####''   ,,,,##########,,,,          '''####'''          '####       
            ,##' ,,,,###########################,,,                        '##       
           ' ,,###''''                  '''############,,,                           
         ,,##''                                '''############,,,,        ,,,,,,###''
      ,#''                                            '''#######################'''  
     '                                                          ''''####''''         
             ,#######,   #######,   ,#######,      ##                                
            ,#'     '#,  ##    ##  ,#'     '#,    #''#        ######   ,####,        
            ##       ##  ##   ,#'  ##            #'  '#       #        #'  '#        
            ##       ##  #######   ##           ,######,      #####,   #    #        
            '#,     ,#'  ##    ##  '#,     ,#' ,#      #,         ##   #,  ,#        
             '#######'   ##     ##  '#######'  #'      '#     #####' # '####'        



                  #######################################################
                  #                        -***-                        #
                  #          Department of theory and spectroscopy      #
                  #    Directorship and core code : Frank Neese         #
                  #        Max Planck Institute fuer Kohlenforschung    #
                  #                Kaiser Wilhelm Platz 1               #
                  #                 D-45470 Muelheim/Ruhr               #
                  #                      Germany                        #
                  #                                                     #
                  #                  All rights reserved                #
                  #                        -***-                        #
                  #######################################################


                         Program Version 5.0.4 -  RELEASE  -


 With contributions from (in alphabetic order):
   Daniel Aravena         : Magnetic Suceptibility
   Michael Atanasov       : Ab Initio Ligand Field Theory (pilot matlab implementation)
   Alexander A. Auer      : GIAO ZORA, VPT2 properties, NMR spectrum
   Ute Becker             : Parallelization
   Giovanni Bistoni       : ED, misc. LED, open-shell LED, HFLD
   Martin Brehm           : Molecular dynamics
   Dmytro Bykov           : SCF Hessian
   Vijay G. Chilkuri      : MRCI spin determinant printing, contributions to CSF-ICE
   Dipayan Datta          : RHF DLPNO-CCSD density
   Achintya Kumar Dutta   : EOM-CC, STEOM-CC
   Dmitry Ganyushin       : Spin-Orbit,Spin-Spin,Magnetic field MRCI
   Miquel Garcia          : C-PCM and meta-GGA Hessian, CC/C-PCM, Gaussian charge scheme
   Yang Guo               : DLPNO-NEVPT2, F12-NEVPT2, CIM, IAO-localization
   Andreas Hansen         : Spin unrestricted coupled pair/coupled cluster methods
   Benjamin Helmich-Paris : MC-RPA, TRAH-SCF, COSX integrals
   Lee Huntington         : MR-EOM, pCC
   Robert Izsak           : Overlap fitted RIJCOSX, COSX-SCS-MP3, EOM
   Marcus Kettner         : VPT2
   Christian Kollmar      : KDIIS, OOCD, Brueckner-CCSD(T), CCSD density, CASPT2, CASPT2-K
   Simone Kossmann        : Meta GGA functionals, TD-DFT gradient, OOMP2, MP2 Hessian
   Martin Krupicka        : Initial AUTO-CI
   Lucas Lang             : DCDCAS
   Marvin Lechner         : AUTO-CI (C++ implementation), FIC-MRCC
   Dagmar Lenk            : GEPOL surface, SMD
   Dimitrios Liakos       : Extrapolation schemes; Compound Job, initial MDCI parallelization
   Dimitrios Manganas     : Further ROCIS development; embedding schemes
   Dimitrios Pantazis     : SARC Basis sets
   Anastasios Papadopoulos: AUTO-CI, single reference methods and gradients
   Taras Petrenko         : DFT Hessian,TD-DFT gradient, ASA, ECA, R-Raman, ABS, FL, XAS/XES, NRVS
   Peter Pinski           : DLPNO-MP2, DLPNO-MP2 Gradient
   Christoph Reimann      : Effective Core Potentials
   Marius Retegan         : Local ZFS, SOC
   Christoph Riplinger    : Optimizer, TS searches, QM/MM, DLPNO-CCSD(T), (RO)-DLPNO pert. Triples
   Tobias Risthaus        : Range-separated hybrids, TD-DFT gradient, RPA, STAB
   Michael Roemelt        : Original ROCIS implementation
   Masaaki Saitow         : Open-shell DLPNO-CCSD energy and density
   Barbara Sandhoefer     : DKH picture change effects
   Avijit Sen             : IP-ROCIS
   Kantharuban Sivalingam : CASSCF convergence, NEVPT2, FIC-MRCI
   Bernardo de Souza      : ESD, SOC TD-DFT
   Georgi Stoychev        : AutoAux, RI-MP2 NMR, DLPNO-MP2 response
   Willem Van den Heuvel  : Paramagnetic NMR
   Boris Wezisla          : Elementary symmetry handling
   Frank Wennmohs         : Technical directorship


 We gratefully acknowledge several colleagues who have allowed us to
 interface, adapt or use parts of their codes:
   Stefan Grimme, W. Hujo, H. Kruse, P. Pracht,  : VdW corrections, initial TS optimization,
                  C. Bannwarth, S. Ehlert          DFT functionals, gCP, sTDA/sTD-DF
   Ed Valeev, F. Pavosevic, A. Kumar             : LibInt (2-el integral package), F12 methods
   Garnet Chan, S. Sharma, J. Yang, R. Olivares  : DMRG
   Ulf Ekstrom                                   : XCFun DFT Library
   Mihaly Kallay                                 : mrcc  (arbitrary order and MRCC methods)
   Jiri Pittner, Ondrej Demel                    : Mk-CCSD
   Frank Weinhold                                : gennbo (NPA and NBO analysis)
   Christopher J. Cramer and Donald G. Truhlar   : smd solvation model
   Lars Goerigk                                  : TD-DFT with DH, B97 family of functionals
   V. Asgeirsson, H. Jonsson                     : NEB implementation
   FAccTs GmbH                                   : IRC, NEB, NEB-TS, DLPNO-Multilevel, CI-OPT
                                                   MM, QMMM, 2- and 3-layer-ONIOM, Crystal-QMMM,
                                                   LR-CPCM, SF, NACMEs, symmetry and pop. for TD-DFT,
                                                   nearIR, NL-DFT gradient (VV10), updates on ESD,
                                                   ML-optimized integration grids
   S Lehtola, MJT Oliveira, MAL Marques          : LibXC Library
   Liviu Ungur et al                             : ANISO software


 Your calculation uses the libint2 library for the computation of 2-el integrals
 For citations please refer to: http://libint.valeyev.net

 Your ORCA version has been built with support for libXC version: 5.1.0
 For citations please refer to: https://tddft.org/programs/libxc/

 This ORCA versions uses:
   CBLAS   interface :  Fast vector & matrix operations
   LAPACKE interface :  Fast linear algebra routines
   SCALAPACK package :  Parallel linear algebra routines
   Shared memory     :  Shared parallel matrices
   BLAS/LAPACK       :  OpenBLAS 0.3.15  USE64BITINT DYNAMIC_ARCH NO_AFFINITY Prescott SINGLE_THREADED
        Core in use  :  Prescott
   Copyright (c) 2011-2014, The OpenBLAS Project




***************************************
The coordinates will be read from file: model_opt.xyz
***************************************


XCFun DFT library Copyright 2009-2010 Ulf Ekstrom and contributors.
See http://admol.org/xcfun for more information.
This is free software; see the source code for copying conditions.
There is ABSOLUTELY NO WARRANTY; not even for MERCHANTABILITY or FITNESS FOR A PARTICULAR PURPOSE.
For details see the documentation.
Scientific users of this library should cite U. Ekstrom, L. Visscher, R. Bast, A. J. Thorvaldsen and K. Ruud;
J.Chem.Theor.Comp. 2010, DOI: 10.1021/ct100117s
XCFun Version 0.99 

================================================================================

----- Orbital basis set information -----
Your calculation utilizes the basis: def2-TZVP
   F. Weigend and R. Ahlrichs, Phys. Chem. Chem. Phys. 7, 3297 (2005).

----- AuxJ basis set information -----
Your calculation utilizes the auxiliary basis: def2/J
   F. Weigend, Phys. Chem. Chem. Phys. 8, 1057 (2006).

================================================================================
                                        WARNINGS
                       Please study these warnings very carefully!
================================================================================


WARNING: your system is open-shell and RHF/RKS was chosen
  ===> : WILL SWITCH to UHF/UKS


WARNING: Geometry Optimization
  ===> : Switching off AutoStart
         For restart on a previous wavefunction, please use MOREAD

WARNING: Minnesota functionals are quite sensitive to the integration grid.
         see SE Wheeler, KN Houk, JCTC 2010, 6, 395,
             N Mardirossian, M Head-Gordon, JCTC 2016, 12, 4303.
         DEFGRID3 seems to be a minimum grid for reliable results with these functionals!
  ===> : Please increase the integration grid!


INFO   : the flag for use of the SHARK integral package has been found!

================================================================================
                                       INPUT FILE
================================================================================
NAME = model_freq.inp
|  1> ! M062X def2-TZVP OPT FREQ
|  2> %pal nprocs 16 end
|  3> *XYZFile 0 2 model_opt.xyz
|  4> 
|  5>                          ****END OF INPUT****
================================================================================

                       *****************************
                       * Geometry Optimization Run *
                       *****************************

Geometry optimization settings:
Update method            Update   .... BFGS
Choice of coordinates    CoordSys .... Z-matrix Internals
Initial Hessian          InHess   .... Almoef's Model

Convergence Tolerances:
Energy Change            TolE     ....  5.0000e-06 Eh
Max. Gradient            TolMAXG  ....  3.0000e-04 Eh/bohr
RMS Gradient             TolRMSG  ....  1.0000e-04 Eh/bohr
Max. Displacement        TolMAXD  ....  4.0000e-03 bohr
RMS Displacement         TolRMSD  ....  2.0000e-03 bohr
Strict Convergence                ....  False
------------------------------------------------------------------------------
                        ORCA OPTIMIZATION COORDINATE SETUP
------------------------------------------------------------------------------

The optimization will be done in new redundant internal coordinates
Making redundant internal coordinates   ...  (new redundants) done
Evaluating the initial hessian          ...  (Almloef) done
Evaluating the coordinates              ...  done
Calculating the B-matrix                .... done
Calculating the G-matrix                .... done
Diagonalizing the G-matrix              .... done
The first mode is                       ....   39
The number of degrees of freedom        ....   54

    -----------------------------------------------------------------
                    Redundant Internal Coordinates


    -----------------------------------------------------------------
         Definition                    Initial Value    Approx d2E/dq
    -----------------------------------------------------------------
      1. B(C   1,N   0)                  1.4662         0.422930   
      2. B(C   2,N   0)                  1.3592         0.626578   
      3. B(C   3,C   2)                  1.4406         0.518791   
      4. B(O   4,C   3)                  1.2482         0.942040   
      5. B(C   5,C   3)                  1.5032         0.412162   
      6. B(C   6,C   5)                  1.3722         0.666990   
      7. B(C   7,C   5)                  1.4576         0.487329   
      8. B(C   8,C   7)                  1.5127         0.398158   
      9. B(C   9,C   7)                  1.3731         0.664733   
     10. B(C   9,N   0)                  1.3850         0.570056   
     11. B(H  10,C   1)                  1.0955         0.352888   
     12. B(H  11,C   1)                  1.0921         0.357390   
     13. B(H  12,C   1)                  1.0911         0.358609   
     14. B(H  13,C   2)                  1.0837         0.368478   
     15. B(H  14,C   6)                  1.0839         0.368232   
     16. B(H  15,C   6)                  1.0841         0.368028   
     17. B(H  16,C   8)                  1.0960         0.352221   
     18. B(H  17,C   8)                  1.0934         0.355609   
     19. B(H  18,C   8)                  1.0960         0.352295   
     20. B(H  19,C   9)                  1.0839         0.368243   
     21. A(C   1,N   0,C   2)          119.8493         0.401006   
     22. A(C   2,N   0,C   9)          121.0038         0.422816   
     23. A(C   1,N   0,C   9)          119.0105         0.394401   
     24. A(H  11,C   1,H  12)          108.7552         0.290305   
     25. A(N   0,C   1,H  10)          110.7686         0.327933   
     26. A(H  10,C   1,H  11)          109.1368         0.289574   
     27. A(N   0,C   1,H  11)          109.6282         0.328620   
     28. A(N   0,C   1,H  12)          109.3985         0.328805   
     29. A(H  10,C   1,H  12)          109.1206         0.289729   
     30. A(C   3,C   2,H  13)          119.6501         0.343798   
     31. A(N   0,C   2,H  13)          117.6638         0.352733   
     32. A(N   0,C   2,C   3)          122.6859         0.418483   
     33. A(C   2,C   3,O   4)          120.8923         0.450340   
     34. A(O   4,C   3,C   5)          122.9591         0.432004   
     35. A(C   2,C   3,C   5)          116.1486         0.391168   
     36. A(C   3,C   5,C   7)          117.8122         0.386920   
     37. A(C   3,C   5,C   6)          118.4603         0.408851   
     38. A(C   6,C   5,C   7)          123.7273         0.421212   
     39. A(C   5,C   6,H  15)          119.0492         0.358635   
     40. A(C   5,C   6,H  14)          122.3217         0.358669   
     41. A(H  14,C   6,H  15)          118.6291         0.292865   
     42. A(C   8,C   7,C   9)          119.3827         0.406115   
     43. A(C   5,C   7,C   9)          120.0786         0.420957   
     44. A(C   5,C   7,C   8)          120.5380         0.384598   
     45. A(H  16,C   8,H  18)          107.2337         0.288838   
     46. A(C   7,C   8,H  18)          110.9660         0.326557   
     47. A(H  16,C   8,H  17)          108.1278         0.289262   
     48. A(C   7,C   8,H  17)          111.2493         0.327061   
     49. A(C   7,C   8,H  16)          110.9843         0.326545   
     50. A(H  17,C   8,H  18)          108.1238         0.289271   
     51. A(N   0,C   9,C   7)          122.2692         0.430119   
     52. A(C   7,C   9,H  19)          122.4590         0.358464   
     53. A(N   0,C   9,H  19)          115.2713         0.347112   
     54. D(H  10,C   1,N   0,C   2)     91.0744         0.015251   
     55. D(H  11,C   1,N   0,C   2)   -148.4290         0.015251   
     56. D(H  11,C   1,N   0,C   9)     35.7739         0.015251   
     57. D(H  12,C   1,N   0,C   2)    -29.2533         0.015251   
     58. D(H  10,C   1,N   0,C   9)    -84.7228         0.015251   
     59. D(H  12,C   1,N   0,C   9)    154.9495         0.015251   
     60. D(C   3,C   2,N   0,C   1)   -176.2107         0.031844   
     61. D(H  13,C   2,N   0,C   1)      3.9460         0.031844   
     62. D(H  13,C   2,N   0,C   9)    179.6577         0.031844   
     63. D(C   3,C   2,N   0,C   9)     -0.4991         0.031844   
     64. D(C   5,C   3,C   2,H  13)   -179.8814         0.018353   
     65. D(O   4,C   3,C   2,H  13)      0.1647         0.018353   
     66. D(O   4,C   3,C   2,N   0)   -179.6755         0.018353   
     67. D(C   5,C   3,C   2,N   0)      0.2784         0.018353   
     68. D(C   6,C   5,C   3,C   2)   -179.8709         0.011645   
     69. D(C   7,C   5,C   3,O   4)    179.9070         0.011645   
     70. D(C   7,C   5,C   3,C   2)     -0.0459         0.011645   
     71. D(C   6,C   5,C   3,O   4)      0.0820         0.011645   
     72. D(H  15,C   6,C   5,C   7)   -179.9120         0.031092   
     73. D(H  15,C   6,C   5,C   3)     -0.0981         0.031092   
     74. D(H  14,C   6,C   5,C   7)      0.0496         0.031092   
     75. D(H  14,C   6,C   5,C   3)    179.8635         0.031092   
     76. D(C   9,C   7,C   5,C   6)    179.8494         0.016170   
     77. D(C   9,C   7,C   5,C   3)      0.0344         0.016170   
     78. D(C   8,C   7,C   5,C   6)      0.1549         0.016170   
     79. D(C   8,C   7,C   5,C   3)   -179.6601         0.016170   
     80. D(H  17,C   8,C   7,C   9)      0.4102         0.011770   
     81. D(H  17,C   8,C   7,C   5)   -179.8932         0.011770   
     82. D(H  16,C   8,C   7,C   9)   -120.0338         0.011770   
     83. D(H  18,C   8,C   7,C   5)    -59.4665         0.011770   
     84. D(H  16,C   8,C   7,C   5)     59.6628         0.011770   
     85. D(H  18,C   8,C   7,C   9)    120.8369         0.011770   
     86. D(H  19,C   9,C   7,C   8)     -0.2674         0.030866   
     87. D(N   0,C   9,C   7,C   8)    179.4514         0.030866   
     88. D(N   0,C   9,C   7,C   5)     -0.2466         0.030866   
     89. D(H  19,C   9,N   0,C   2)   -179.7802         0.026007   
     90. D(H  19,C   9,N   0,C   1)     -4.0331         0.026007   
     91. D(H  19,C   9,C   7,C   5)   -179.9654         0.030866   
     92. D(C   7,C   9,N   0,C   2)      0.4822         0.026007   
     93. D(C   7,C   9,N   0,C   1)    176.2292         0.026007   
    -----------------------------------------------------------------

Number of atoms                         .... 20
Number of degrees of freedom            .... 93

         *************************************************************
         *                GEOMETRY OPTIMIZATION CYCLE   1            *
         *************************************************************
---------------------------------
CARTESIAN COORDINATES (ANGSTROEM)
---------------------------------
  N     -1.666140   -0.007042    0.020530
  C     -3.131657   -0.042569   -0.007824
  C     -1.017495    1.186801   -0.018070
  C      0.418297    1.290657   -0.073509
  O      0.979608    2.405195   -0.101804
  C      1.176129   -0.007431   -0.093345
  C      2.546741    0.036228   -0.143161
  C      0.406676   -1.244822   -0.054368
  C      1.106605   -2.585764   -0.063907
  C     -0.964768   -1.201058   -0.002189
  H     -3.498614   -0.115577   -1.037459
  H     -3.488817   -0.903379    0.561411
  H     -3.525113    0.867285    0.448161
  H     -1.620004    2.087499   -0.003336
  H      3.155004   -0.860817   -0.157744
  H      3.042118    1.000167   -0.168318
  H      1.775898   -2.685307    0.798301
  H      0.387146   -3.408548   -0.032874
  H      1.718910   -2.702115   -0.965397
  H     -1.574623   -2.096601    0.028601

----------------------------
CARTESIAN COORDINATES (A.U.)
----------------------------
  NO LB      ZA    FRAG     MASS         X           Y           Z
   0 N     7.0000    0    14.007   -3.148548   -0.013308    0.038797
   1 C     6.0000    0    12.011   -5.917974   -0.080444   -0.014785
   2 C     6.0000    0    12.011   -1.922787    2.242729   -0.034147
   3 C     6.0000    0    12.011    0.790467    2.438989   -0.138913
   4 O     8.0000    0    15.999    1.851191    4.545160   -0.192382
   5 C     6.0000    0    12.011    2.222563   -0.014043   -0.176397
   6 C     6.0000    0    12.011    4.812643    0.068460   -0.270536
   7 C     6.0000    0    12.011    0.768505   -2.352373   -0.102740
   8 C     6.0000    0    12.011    2.091180   -4.886386   -0.120766
   9 C     6.0000    0    12.011   -1.823148   -2.269671   -0.004137
  10 H     1.0000    0     1.008   -6.611423   -0.218409   -1.960514
  11 H     1.0000    0     1.008   -6.592909   -1.707140    1.060913
  12 H     1.0000    0     1.008   -6.661499    1.638931    0.846901
  13 H     1.0000    0     1.008   -3.061364    3.944801   -0.006303
  14 H     1.0000    0     1.008    5.962093   -1.626708   -0.298092
  15 H     1.0000    0     1.008    5.748771    1.890042   -0.318074
  16 H     1.0000    0     1.008    3.355960   -5.074494    1.508571
  17 H     1.0000    0     1.008    0.731600   -6.441223   -0.062124
  18 H     1.0000    0     1.008    3.248268   -5.106257   -1.824335
  19 H     1.0000    0     1.008   -2.975606   -3.962003    0.054048

--------------------------------
INTERNAL COORDINATES (ANGSTROEM)
--------------------------------
 N      0   0   0     0.000000000000     0.00000000     0.00000000
 C      1   0   0     1.466221854982     0.00000000     0.00000000
 C      1   2   0     1.359224827237   119.84928160     0.00000000
 C      3   1   2     1.440610549750   122.68593465   183.78926009
 O      4   3   1     1.248224428605   120.89232303   180.32447102
 C      4   3   1     1.503242144038   116.14856771     0.27840482
 C      6   4   3     1.372211212420   118.46025217   180.12910924
 C      6   4   3     1.457640529944   117.81221391   359.95410904
 C      8   6   4     1.512652022829   120.53804914   180.33986067
 C      8   6   4     1.373133853104   120.07855588     0.03436586
 H      2   1   3     1.095507484314   110.76863071    91.07435984
 H      2   1   3     1.092056006525   109.62818747   211.57104899
 H      2   1   3     1.091129752309   109.39848166   330.74667089
 H      3   1   2     1.083739041814   117.66378878     3.94604538
 H      7   6   4     1.083920824158   122.32168511   179.86353709
 H      7   6   4     1.084071810538   119.04918841   359.90189862
 H      9   8   6     1.096022011469   110.98429911    59.66277561
 H      9   8   6     1.093415982379   111.24932387   180.10682716
 H      9   8   6     1.095964755179   110.96602765   300.53348502
 H     10   8   6     1.083913159223   122.45896395   180.03455864

---------------------------
INTERNAL COORDINATES (A.U.)
---------------------------
 N      0   0   0     0.000000000000     0.00000000     0.00000000
 C      1   0   0     2.770757757487     0.00000000     0.00000000
 C      1   2   0     2.568562677904   119.84928160     0.00000000
 C      3   1   2     2.722359404665   122.68593465   183.78926009
 O      4   3   1     2.358802323735   120.89232303   180.32447102
 C      4   3   1     2.840715965201   116.14856771     0.27840482
 C      6   4   3     2.593103389371   118.46025217   180.12910924
 C      6   4   3     2.754541403297   117.81221391   359.95410904
 C      8   6   4     2.858498059069   120.53804914   180.33986067
 C      8   6   4     2.594846927583   120.07855588     0.03436586
 H      2   1   3     2.070209123015   110.76863071    91.07435984
 H      2   1   3     2.063686775236   109.62818747   211.57104899
 H      2   1   3     2.061936408437   109.39848166   330.74667089
 H      3   1   2     2.047969989666   117.66378878     3.94604538
 H      7   6   4     2.048313508514   122.32168511   179.86353709
 H      7   6   4     2.048598831420   119.04918841   359.90189862
 H      9   8   6     2.071181438426   110.98429911    59.66277561
 H      9   8   6     2.066256757148   111.24932387   180.10682716
 H      9   8   6     2.071073239718   110.96602765   300.53348502
 H     10   8   6     2.048299023885   122.45896395   180.03455864

---------------------
BASIS SET INFORMATION
---------------------
There are 4 groups of distinct atoms

 Group   1 Type N   : 11s6p2d1f contracted to 5s3p2d1f pattern {62111/411/11/1}
 Group   2 Type C   : 11s6p2d1f contracted to 5s3p2d1f pattern {62111/411/11/1}
 Group   3 Type O   : 11s6p2d1f contracted to 5s3p2d1f pattern {62111/411/11/1}
 Group   4 Type H   : 5s1p contracted to 3s1p pattern {311/1}

Atom   0N    basis set group =>   1
Atom   1C    basis set group =>   2
Atom   2C    basis set group =>   2
Atom   3C    basis set group =>   2
Atom   4O    basis set group =>   3
Atom   5C    basis set group =>   2
Atom   6C    basis set group =>   2
Atom   7C    basis set group =>   2
Atom   8C    basis set group =>   2
Atom   9C    basis set group =>   2
Atom  10H    basis set group =>   4
Atom  11H    basis set group =>   4
Atom  12H    basis set group =>   4
Atom  13H    basis set group =>   4
Atom  14H    basis set group =>   4
Atom  15H    basis set group =>   4
Atom  16H    basis set group =>   4
Atom  17H    basis set group =>   4
Atom  18H    basis set group =>   4
Atom  19H    basis set group =>   4
---------------------------------
AUXILIARY/J BASIS SET INFORMATION
---------------------------------
There are 4 groups of distinct atoms

 Group   1 Type N   : 12s5p4d2f1g contracted to 6s4p3d1f1g pattern {711111/2111/211/2/1}
 Group   2 Type C   : 12s5p4d2f1g contracted to 6s4p3d1f1g pattern {711111/2111/211/2/1}
 Group   3 Type O   : 12s5p4d2f1g contracted to 6s4p3d1f1g pattern {711111/2111/211/2/1}
 Group   4 Type H   : 5s2p1d contracted to 3s1p1d pattern {311/2/1}

Atom   0N    basis set group =>   1
Atom   1C    basis set group =>   2
Atom   2C    basis set group =>   2
Atom   3C    basis set group =>   2
Atom   4O    basis set group =>   3
Atom   5C    basis set group =>   2
Atom   6C    basis set group =>   2
Atom   7C    basis set group =>   2
Atom   8C    basis set group =>   2
Atom   9C    basis set group =>   2
Atom  10H    basis set group =>   4
Atom  11H    basis set group =>   4
Atom  12H    basis set group =>   4
Atom  13H    basis set group =>   4
Atom  14H    basis set group =>   4
Atom  15H    basis set group =>   4
Atom  16H    basis set group =>   4
Atom  17H    basis set group =>   4
Atom  18H    basis set group =>   4
Atom  19H    basis set group =>   4


           ************************************************************
           *        Program running with 16 parallel MPI-processes    *
           *              working on a common directory               *
           ************************************************************
------------------------------------------------------------------------------
                           ORCA GTO INTEGRAL CALCULATION
                           -- RI-GTO INTEGRALS CHOSEN --
------------------------------------------------------------------------------
------------------------------------------------------------------------------
                   ___                                                        
                  /   \      - P O W E R E D   B Y -                         
                 /     \                                                     
                 |  |  |   _    _      __       _____    __    __             
                 |  |  |  | |  | |    /  \     |  _  \  |  |  /  |          
                  \  \/   | |  | |   /    \    | | | |  |  | /  /          
                 / \  \   | |__| |  /  /\  \   | |_| |  |  |/  /          
                |  |  |   |  __  | /  /__\  \  |    /   |      \           
                |  |  |   | |  | | |   __   |  |    \   |  |\   \          
                \     /   | |  | | |  |  |  |  | |\  \  |  | \   \       
                 \___/    |_|  |_| |__|  |__|  |_| \__\ |__|  \__/        
                                                                              
                      - O R C A' S   B I G   F R I E N D -                    
                                      &                                       
                       - I N T E G R A L  F E E D E R -                       
                                                                              
 v1 FN, 2020, v2 2021                                                         
------------------------------------------------------------------------------


Reading SHARK input file model_freq.SHARKINP.tmp ... ok
----------------------
SHARK INTEGRAL PACKAGE
----------------------

Number of atoms                             ...     20
Number of basis functions                   ...    370
Number of shells                            ...    150
Maximum angular momentum                    ...      3
Integral batch strategy                     ... SHARK/LIBINT Hybrid
RI-J (if used) integral strategy            ... SPLIT-RIJ (Revised 2003 algorithm where possible)
Printlevel                                  ...      1
Contraction scheme used                     ... SEGMENTED contraction
Coulomb Range Separation                    ... NOT USED
Exchange Range Separation                   ... NOT USED
Finite Nucleus Model                        ... NOT USED
Auxiliary Coulomb fitting basis             ... AVAILABLE
   # of basis functions in Aux-J            ...    600
   # of shells in Aux-J                     ...    200
   Maximum angular momentum in Aux-J        ...      4
Auxiliary J/K fitting basis                 ... NOT available
Auxiliary Correlation fitting basis         ... NOT available
Auxiliary 'external' fitting basis          ... NOT available
Integral threshold                          ...     2.500000e-11
Primitive cut-off                           ...     2.500000e-12
Primitive pair pre-selection threshold      ...     2.500000e-12

Calculating pre-screening integrals         ... done (  0.0 sec) Dimension = 150
Organizing shell pair data                  ... done (  0.2 sec)
Shell pair information
Total number of shell pairs                 ...     11325
Shell pairs after pre-screening             ...      9982
Total number of primitive shell pairs       ...     34180
Primitive shell pairs kept                  ...     22098
          la=0 lb=0:   2721 shell pairs
          la=1 lb=0:   2834 shell pairs
          la=1 lb=1:    750 shell pairs
          la=2 lb=0:   1433 shell pairs
          la=2 lb=1:    741 shell pairs
          la=2 lb=2:    198 shell pairs
          la=3 lb=0:    692 shell pairs
          la=3 lb=1:    371 shell pairs
          la=3 lb=2:    190 shell pairs
          la=3 lb=3:     52 shell pairs

Calculating one electron integrals          ... done (  0.0 sec)
Calculating RI/J V-Matrix + Cholesky decomp.... done (  0.1 sec)
Calculating Nuclear repulsion               ... done (  0.0 sec) ENN=    505.816950600353 Eh

SHARK setup successfully completed in   0.7 seconds

Maximum memory used throughout the entire GTOINT-calculation: 23.1 MB


           ************************************************************
           *        Program running with 16 parallel MPI-processes    *
           *              working on a common directory               *
           ************************************************************
-------------------------------------------------------------------------------
                                 ORCA SCF
-------------------------------------------------------------------------------

------------
SCF SETTINGS
------------
Hamiltonian:
 Density Functional     Method          .... DFT(GTOs)
 Exchange Functional    Exchange        .... M062X
 Correlation Functional Correlation     .... M062X
 Gradients option       PostSCFGGA      .... off
 Hybrid DFT is turned on
   Fraction HF Exchange ScalHFX         ....  0.540000
   Scaling of DF-GGA-X  ScalDFX         ....  0.460000
   Scaling of DF-GGA-C  ScalDFC         ....  1.000000
   Scaling of DF-LDA-C  ScalLDAC        ....  1.000000
   Perturbative correction              ....  0.000000
   Density functional embedding theory  .... OFF
 RI-approximation to the Coulomb term is turned on
   Number of AuxJ basis functions       .... 600
   RIJ-COSX (HFX calculated with COS-X)).... on


General Settings:
 Integral files         IntName         .... model_freq
 Hartree-Fock type      HFTyp           .... UHF
 Total Charge           Charge          ....    0
 Multiplicity           Mult            ....    2
 Number of Electrons    NEL             ....   73
 Basis Dimension        Dim             ....  370
 Nuclear Repulsion      ENuc            ....    505.8169506004 Eh

Convergence Acceleration:
 DIIS                   CNVDIIS         .... on
   Start iteration      DIISMaxIt       ....    12
   Startup error        DIISStart       ....  0.200000
   # of expansion vecs  DIISMaxEq       ....     5
   Bias factor          DIISBfac        ....   1.050
   Max. coefficient     DIISMaxC        ....  10.000
 Trust-Rad. Augm. Hess. CNVTRAH         .... auto
   Auto Start mean grad. ratio tolernc. ....  1.125000
   Auto Start start iteration           ....    20
   Auto Start num. interpolation iter.  ....    10
   Max. Number of Micro iterations      ....    16
   Max. Number of Macro iterations      .... Maxiter - #DIIS iter
   Number of Davidson start vectors     ....     2
   Converg. threshold I  (grad. norm)   ....   1.000e-05
   Converg. threshold II (energy diff.) ....   1.000e-08
   Grad. Scal. Fac. for Micro threshold ....   0.100
   Minimum threshold for Micro iter.    ....   0.010
   NR start threshold (gradient norm)   ....   0.001
   Initial trust radius                 ....   0.400
   Minimum AH scaling param. (alpha)    ....   1.000
   Maximum AH scaling param. (alpha)    .... 1000.000
   Orbital update algorithm             .... Taylor
   White noise on init. David. guess    .... on
   Maximum white noise                  ....   0.010
   Quad. conv. algorithm                .... NR
 SOSCF                  CNVSOSCF        .... off
 Level Shifting         CNVShift        .... on
   Level shift para.    LevelShift      ....    0.2500
   Turn off err/grad.   ShiftErr        ....    0.0010
 Zerner damping         CNVZerner       .... off
 Static damping         CNVDamp         .... on
   Fraction old density DampFac         ....    0.7000
   Max. Damping (<1)    DampMax         ....    0.9800
   Min. Damping (>=0)   DampMin         ....    0.0000
   Turn off err/grad.   DampErr         ....    0.1000
 Fernandez-Rico         CNVRico         .... off

SCF Procedure:
 Maximum # iterations   MaxIter         ....   125
 SCF integral mode      SCFMode         .... Direct
   Integral package                     .... SHARK and LIBINT hybrid scheme
 Reset frequency        DirectResetFreq ....    20
 Integral Threshold     Thresh          ....  2.500e-11 Eh
 Primitive CutOff       TCut            ....  2.500e-12 Eh

Convergence Tolerance:
 Convergence Check Mode ConvCheckMode   .... Total+1el-Energy
 Convergence forced     ConvForced      .... 0
 Energy Change          TolE            ....  1.000e-08 Eh
 1-El. energy change                    ....  1.000e-05 Eh
 DIIS Error             TolErr          ....  5.000e-07


Diagonalization of the overlap matrix:
Smallest eigenvalue                        ... 4.302e-05
Time for diagonalization                   ...    0.042 sec
Threshold for overlap eigenvalues          ... 1.000e-08
Number of eigenvalues below threshold      ... 0
Time for construction of square roots      ...    0.075 sec
Total time needed                          ...    0.118 sec

Time for model grid setup =    0.154 sec

------------------------------
INITIAL GUESS: MODEL POTENTIAL
------------------------------
Loading Hartree-Fock densities                     ... done
Calculating cut-offs                               ... done
Initializing the effective Hamiltonian             ... done
Setting up the integral package (SHARK)            ... done
Starting the Coulomb interaction                   ... done (   0.1 sec)
Reading the grid                                   ... done
Mapping shells                                     ... done
Starting the XC term evaluation                    ... done (   0.1 sec)
  promolecular density results
     # of electrons  =     72.993808572
     EX              =    -58.514646297
     EC              =     -2.417075291
     EX+EC           =    -60.931721587
Transforming the Hamiltonian                       ... done (   0.0 sec)
Diagonalizing the Hamiltonian                      ... done (   0.0 sec)
Back transforming the eigenvectors                 ... done (   0.0 sec)
Now organizing SCF variables                       ... done
                      ------------------
                      INITIAL GUESS DONE (   0.4 sec)
                      ------------------
-------------------
DFT GRID GENERATION
-------------------

General Integration Accuracy     IntAcc      ... 4.388
Radial Grid Type                 RadialGrid  ... OptM3 with GC (2021)
Angular Grid (max. ang.)         AngularGrid ... 4 (Lebedev-302)
Angular grid pruning method      GridPruning ... 4 (adaptive)
Weight generation scheme         WeightScheme... Becke
Basis function cutoff            BFCut       ... 1.0000e-11
Integration weight cutoff        WCut        ... 1.0000e-14
Angular grids for H and He will be reduced by one unit
Partially contracted basis set               ... off
Rotationally invariant grid construction     ... off

Total number of grid points                  ...    92196
Total number of batches                      ...     1451
Average number of points per batch           ...       63
Average number of grid points per atom       ...     4610
Time for grid setup =    0.597 sec

--------------------
COSX GRID GENERATION
--------------------

GRIDX 1
-------
General Integration Accuracy     IntAcc      ... 3.816
Radial Grid Type                 RadialGrid  ... OptM3 with GC (2021)
Angular Grid (max. ang.)         AngularGrid ... 1 (Lebedev-50)
Angular grid pruning method      GridPruning ... 4 (adaptive)
Weight generation scheme         WeightScheme... Becke
Basis function cutoff            BFCut       ... 1.0000e-11
Integration weight cutoff        WCut        ... 1.0000e-14
Angular grids for H and He will be reduced by one unit
Partially contracted basis set               ... on
Rotationally invariant grid construction     ... off

Total number of grid points                  ...    11804
Total number of batches                      ...      193
Average number of points per batch           ...       61
Average number of grid points per atom       ...      590
UseSFitting                                  ... on

GRIDX 2
-------
General Integration Accuracy     IntAcc      ... 4.020
Radial Grid Type                 RadialGrid  ... OptM3 with GC (2021)
Angular Grid (max. ang.)         AngularGrid ... 2 (Lebedev-110)
Angular grid pruning method      GridPruning ... 4 (adaptive)
Weight generation scheme         WeightScheme... Becke
Basis function cutoff            BFCut       ... 1.0000e-11
Integration weight cutoff        WCut        ... 1.0000e-14
Angular grids for H and He will be reduced by one unit
Partially contracted basis set               ... on
Rotationally invariant grid construction     ... off

Total number of grid points                  ...    25424
Total number of batches                      ...      404
Average number of points per batch           ...       62
Average number of grid points per atom       ...     1271
UseSFitting                                  ... on

GRIDX 3
-------
General Integration Accuracy     IntAcc      ... 4.338
Radial Grid Type                 RadialGrid  ... OptM3 with GC (2021)
Angular Grid (max. ang.)         AngularGrid ... 3 (Lebedev-194)
Angular grid pruning method      GridPruning ... 4 (adaptive)
Weight generation scheme         WeightScheme... Becke
Basis function cutoff            BFCut       ... 1.0000e-11
Integration weight cutoff        WCut        ... 1.0000e-14
Angular grids for H and He will be reduced by one unit
Partially contracted basis set               ... on
Rotationally invariant grid construction     ... off

Total number of grid points                  ...    55801
Total number of batches                      ...      883
Average number of points per batch           ...       63
Average number of grid points per atom       ...     2790
UseSFitting                                  ... on

Time for X-Grid setup             =    0.954 sec

--------------
SCF ITERATIONS
--------------
ITER       Energy         Delta-E        Max-DP      RMS-DP      [F,P]     Damp
               ***  Starting incremental Fock matrix formation  ***
  0   -440.4693778037   0.000000000000 0.09806675  0.00084633  0.1593351 0.7000
  1   -440.5946499989  -0.125272195154 0.08682033  0.00070902  0.0757549 0.7000
                               ***Turning on DIIS***
  2   -440.6525534245  -0.057903425598 0.10225864  0.00105181  0.0277709 0.0000
  3   -440.7464854988  -0.093932074325 0.09248082  0.00070044  0.0391158 0.0000
  4   -440.7630807144  -0.016595215607 0.01668612  0.00016174  0.0116731 0.0000
  5   -440.7642931061  -0.001212391679 0.01335786  0.00009722  0.0047367 0.0000
  6   -440.7646581207  -0.000365014578 0.00722928  0.00005431  0.0019814 0.0000
  7   -440.7648579896  -0.000199868911 0.00610063  0.00004020  0.0014236 0.0000
  8   -440.7649880326  -0.000130042997 0.00523580  0.00004017  0.0008268 0.0000
               *** Restarting incremental Fock matrix formation ***
                                   *** Resetting DIIS ***
  9   -440.7650736809  -0.000085648313 0.00244474  0.00001947  0.0007508 0.0000
 10   -440.7650845809  -0.000010900035 0.00103444  0.00000747  0.0009258 0.0000
 11   -440.7650909165  -0.000006335578 0.00092277  0.00000821  0.0004079 0.0000
 12   -440.7650972907  -0.000006374218 0.00063028  0.00000685  0.0002035 0.0000
 13   -440.7651004621  -0.000003171407 0.00042303  0.00000407  0.0001530 0.0000
 14   -440.7651013503  -0.000000888153 0.00009774  0.00000114  0.0000760 0.0000
 15   -440.7651015184  -0.000000168132 0.00013869  0.00000133  0.0000565 0.0000
 16   -440.7651016262  -0.000000107786 0.00003329  0.00000047  0.0000272 0.0000
 17   -440.7651016481  -0.000000021937 0.00008061  0.00000064  0.0000171 0.0000
 18   -440.7651016523  -0.000000004150 0.00002081  0.00000016  0.0000137 0.0000
                 **** Energy Check signals convergence ****

               *****************************************************
               *                     SUCCESS                       *
               *           SCF CONVERGED AFTER  19 CYCLES          *
               *****************************************************

Old exchange energy                            =    -32.288463707 Eh
New exchange energy                            =    -32.288455504 Eh
Exchange energy change after final integration =      0.000008204 Eh
Total energy after final integration           =   -440.765093448 Eh
Final COS-X integration done in                =     3.305 sec

----------------
TOTAL SCF ENERGY
----------------

Total Energy       :         -440.76509345 Eh          -11993.82795 eV

Components:
Nuclear Repulsion  :          505.81695060 Eh           13763.97897 eV
Electronic Energy  :         -946.58204405 Eh          -25757.80692 eV
One Electron Energy:        -1598.64813782 Eh          -43501.42740 eV
Two Electron Energy:          652.06609377 Eh           17743.62048 eV
Max COSX asymmetry :            0.00000155 Eh               0.00004 eV

Virial components:
Potential Energy   :         -879.01147305 Eh          -23919.11821 eV
Kinetic Energy     :          438.24637960 Eh           11925.29026 eV
Virial Ratio       :            2.00574726


DFT components:
N(Alpha)           :       37.000038304444 electrons
N(Beta)            :       36.000043286836 electrons
N(Total)           :       73.000081591280 electrons
E(XC)              :      -30.138797503960 Eh       
DFET-embed. en.    :        0.000000000000 Eh       

---------------
SCF CONVERGENCE
---------------

  Last Energy change         ...    3.7295e-10  Tolerance :   1.0000e-08
  Last MAX-Density change    ...    0.0000e+00  Tolerance :   1.0000e-07
  Last RMS-Density change    ...    0.0000e+00  Tolerance :   5.0000e-09
  Last DIIS Error            ...    6.2057e-06  Tolerance :   5.0000e-07

             **** THE GBW FILE WAS UPDATED (model_freq.gbw) ****
             **** DENSITY model_freq.scfp WAS UPDATED ****
             **** ENERGY FILE WAS UPDATED (model_freq.en.tmp) ****
----------------------
UHF SPIN CONTAMINATION
----------------------

Warning: in a DFT calculation there is little theoretical justification to 
         calculate <S**2> as in Hartree-Fock theory. We will do it anyways
         but you should keep in mind that the values have only limited relevance

Expectation value of <S**2>     :     0.784437
Ideal value S*(S+1) for S=0.5   :     0.750000
Deviation                       :     0.034437

             **** THE GBW FILE WAS UPDATED (model_freq.gbw) ****
             **** DENSITY model_freq.scfp WAS UPDATED ****
----------------
ORBITAL ENERGIES
----------------
                 SPIN UP ORBITALS
  NO   OCC          E(Eh)            E(eV) 
   0   1.0000     -19.578852      -532.7677 
   1   1.0000     -14.837742      -403.7555 
   2   1.0000     -10.604744      -288.5697 
   3   1.0000     -10.603870      -288.5460 
   4   1.0000     -10.590122      -288.1719 
   5   1.0000     -10.588496      -288.1276 
   6   1.0000     -10.566213      -287.5213 
   7   1.0000     -10.550624      -287.0971 
   8   1.0000     -10.543765      -286.9104 
   9   1.0000     -10.534384      -286.6552 
  10   1.0000      -1.127717       -30.6868 
  11   1.0000      -1.110110       -30.2076 
  12   1.0000      -0.933956       -25.4142 
  13   1.0000      -0.868280       -23.6271 
  14   1.0000      -0.850049       -23.1310 
  15   1.0000      -0.814462       -22.1626 
  16   1.0000      -0.759992       -20.6804 
  17   1.0000      -0.687622       -18.7112 
  18   1.0000      -0.677288       -18.4299 
  19   1.0000      -0.602756       -16.4018 
  20   1.0000      -0.600354       -16.3365 
  21   1.0000      -0.570080       -15.5127 
  22   1.0000      -0.543378       -14.7861 
  23   1.0000      -0.510429       -13.8895 
  24   1.0000      -0.505455       -13.7541 
  25   1.0000      -0.500722       -13.6253 
  26   1.0000      -0.493475       -13.4281 
  27   1.0000      -0.476495       -12.9661 
  28   1.0000      -0.472811       -12.8658 
  29   1.0000      -0.468693       -12.7538 
  30   1.0000      -0.436958       -11.8902 
  31   1.0000      -0.430014       -11.7013 
  32   1.0000      -0.418995       -11.4014 
  33   1.0000      -0.362215        -9.8564 
  34   1.0000      -0.312163        -8.4944 
  35   1.0000      -0.293975        -7.9995 
  36   1.0000      -0.218772        -5.9531 
  37   0.0000       0.005515         0.1501 
  38   0.0000       0.034882         0.9492 
  39   0.0000       0.054417         1.4808 
  40   0.0000       0.075951         2.0667 
  41   0.0000       0.091500         2.4898 
  42   0.0000       0.100432         2.7329 
  43   0.0000       0.111069         3.0224 
  44   0.0000       0.130785         3.5588 
  45   0.0000       0.141050         3.8382 
  46   0.0000       0.143139         3.8950 
  47   0.0000       0.147548         4.0150 
  48   0.0000       0.154807         4.2125 
  49   0.0000       0.156619         4.2618 
  50   0.0000       0.172705         4.6995 
  51   0.0000       0.177564         4.8318 
  52   0.0000       0.189802         5.1648 
  53   0.0000       0.206560         5.6208 
  54   0.0000       0.214590         5.8393 
  55   0.0000       0.221833         6.0364 
  56   0.0000       0.231910         6.3106 
  57   0.0000       0.246479         6.7070 
  58   0.0000       0.251945         6.8558 
  59   0.0000       0.265444         7.2231 
  60   0.0000       0.270208         7.3527 
  61   0.0000       0.281179         7.6513 
  62   0.0000       0.296348         8.0640 
  63   0.0000       0.308651         8.3988 
  64   0.0000       0.320369         8.7177 
  65   0.0000       0.323726         8.8090 
  66   0.0000       0.333483         9.0745 
  67   0.0000       0.336789         9.1645 
  68   0.0000       0.344711         9.3801 
  69   0.0000       0.348802         9.4914 
  70   0.0000       0.374946        10.2028 
  71   0.0000       0.379746        10.3334 
  72   0.0000       0.386090        10.5060 
  73   0.0000       0.399513        10.8713 
  74   0.0000       0.403089        10.9686 
  75   0.0000       0.413717        11.2578 
  76   0.0000       0.423488        11.5237 
  77   0.0000       0.436165        11.8687 
  78   0.0000       0.445802        12.1309 
  79   0.0000       0.461113        12.5475 
  80   0.0000       0.462448        12.5839 
  81   0.0000       0.474132        12.9018 
  82   0.0000       0.475637        12.9427 
  83   0.0000       0.488478        13.2922 
  84   0.0000       0.493703        13.4343 
  85   0.0000       0.504685        13.7332 
  86   0.0000       0.505885        13.7658 
  87   0.0000       0.518574        14.1111 
  88   0.0000       0.525056        14.2875 
  89   0.0000       0.539592        14.6831 
  90   0.0000       0.550907        14.9909 
  91   0.0000       0.560478        15.2514 
  92   0.0000       0.577762        15.7217 
  93   0.0000       0.590061        16.0564 
  94   0.0000       0.598891        16.2966 
  95   0.0000       0.605359        16.4727 
  96   0.0000       0.615304        16.7433 
  97   0.0000       0.623608        16.9692 
  98   0.0000       0.639299        17.3962 
  99   0.0000       0.656075        17.8527 
 100   0.0000       0.666244        18.1294 
 101   0.0000       0.676589        18.4109 
 102   0.0000       0.678918        18.4743 
 103   0.0000       0.711699        19.3663 
 104   0.0000       0.723245        19.6805 
 105   0.0000       0.724287        19.7089 
 106   0.0000       0.729583        19.8530 
 107   0.0000       0.737898        20.0792 
 108   0.0000       0.750969        20.4349 
 109   0.0000       0.784841        21.3566 
 110   0.0000       0.793415        21.5899 
 111   0.0000       0.810355        22.0509 
 112   0.0000       0.815283        22.1850 
 113   0.0000       0.836991        22.7757 
 114   0.0000       0.843823        22.9616 
 115   0.0000       0.862297        23.4643 
 116   0.0000       0.871134        23.7048 
 117   0.0000       0.892025        24.2732 
 118   0.0000       0.916751        24.9461 
 119   0.0000       0.931982        25.3605 
 120   0.0000       0.950093        25.8533 
 121   0.0000       0.962137        26.1811 
 122   0.0000       0.970697        26.4140 
 123   0.0000       0.978778        26.6339 
 124   0.0000       1.014309        27.6007 
 125   0.0000       1.017492        27.6874 
 126   0.0000       1.050192        28.5772 
 127   0.0000       1.063378        28.9360 
 128   0.0000       1.092374        29.7250 
 129   0.0000       1.095436        29.8083 
 130   0.0000       1.108927        30.1754 
 131   0.0000       1.124878        30.6095 
 132   0.0000       1.146444        31.1963 
 133   0.0000       1.160546        31.5801 
 134   0.0000       1.181249        32.1434 
 135   0.0000       1.201756        32.7014 
 136   0.0000       1.214019        33.0351 
 137   0.0000       1.233588        33.5676 
 138   0.0000       1.240103        33.7449 
 139   0.0000       1.283372        34.9223 
 140   0.0000       1.303856        35.4797 
 141   0.0000       1.327177        36.1143 
 142   0.0000       1.353395        36.8278 
 143   0.0000       1.361979        37.0613 
 144   0.0000       1.388971        37.7958 
 145   0.0000       1.399052        38.0701 
 146   0.0000       1.405303        38.2402 
 147   0.0000       1.430115        38.9154 
 148   0.0000       1.446730        39.3675 
 149   0.0000       1.464417        39.8488 
 150   0.0000       1.476353        40.1736 
 151   0.0000       1.498623        40.7796 
 152   0.0000       1.514900        41.2225 
 153   0.0000       1.519072        41.3361 
 154   0.0000       1.552616        42.2488 
 155   0.0000       1.562524        42.5184 
 156   0.0000       1.572850        42.7994 
 157   0.0000       1.573993        42.8305 
 158   0.0000       1.584308        43.1112 
 159   0.0000       1.601570        43.5809 
 160   0.0000       1.614277        43.9267 
 161   0.0000       1.630138        44.3583 
 162   0.0000       1.636560        44.5330 
 163   0.0000       1.645715        44.7822 
 164   0.0000       1.657215        45.0951 
 165   0.0000       1.672862        45.5209 
 166   0.0000       1.688888        45.9570 
 167   0.0000       1.698874        46.2287 
 168   0.0000       1.722552        46.8730 
 169   0.0000       1.724292        46.9204 
 170   0.0000       1.734212        47.1903 
 171   0.0000       1.746482        47.5242 
 172   0.0000       1.755844        47.7789 
 173   0.0000       1.797307        48.9072 
 174   0.0000       1.827625        49.7322 
 175   0.0000       1.830708        49.8161 
 176   0.0000       1.853032        50.4236 
 177   0.0000       1.871161        50.9169 
 178   0.0000       1.900162        51.7060 
 179   0.0000       1.903484        51.7964 
 180   0.0000       1.919741        52.2388 
 181   0.0000       1.936718        52.7008 
 182   0.0000       1.991764        54.1987 
 183   0.0000       1.996418        54.3253 
 184   0.0000       2.007667        54.6314 
 185   0.0000       2.014672        54.8220 
 186   0.0000       2.034339        55.3572 
 187   0.0000       2.051601        55.8269 
 188   0.0000       2.068597        56.2894 
 189   0.0000       2.080464        56.6123 
 190   0.0000       2.110075        57.4181 
 191   0.0000       2.113730        57.5175 
 192   0.0000       2.143276        58.3215 
 193   0.0000       2.163621        58.8751 
 194   0.0000       2.172213        59.1089 
 195   0.0000       2.188775        59.5596 
 196   0.0000       2.223223        60.4970 
 197   0.0000       2.240890        60.9777 
 198   0.0000       2.261356        61.5346 
 199   0.0000       2.275705        61.9251 
 200   0.0000       2.293725        62.4154 
 201   0.0000       2.308158        62.8082 
 202   0.0000       2.319765        63.1240 
 203   0.0000       2.337208        63.5987 
 204   0.0000       2.352338        64.0104 
 205   0.0000       2.372754        64.5659 
 206   0.0000       2.377960        64.7076 
 207   0.0000       2.408151        65.5291 
 208   0.0000       2.432089        66.1805 
 209   0.0000       2.441385        66.4335 
 210   0.0000       2.471660        67.2573 
 211   0.0000       2.486679        67.6660 
 212   0.0000       2.495718        67.9120 
 213   0.0000       2.499513        68.0152 
 214   0.0000       2.507341        68.2282 
 215   0.0000       2.530614        68.8615 
 216   0.0000       2.539718        69.1092 
 217   0.0000       2.560289        69.6690 
 218   0.0000       2.569462        69.9186 
 219   0.0000       2.574102        70.0449 
 220   0.0000       2.595799        70.6353 
 221   0.0000       2.615565        71.1732 
 222   0.0000       2.649118        72.0862 
 223   0.0000       2.658023        72.3285 
 224   0.0000       2.661700        72.4285 
 225   0.0000       2.685183        73.0675 
 226   0.0000       2.705269        73.6141 
 227   0.0000       2.727284        74.2132 
 228   0.0000       2.738475        74.5177 
 229   0.0000       2.779388        75.6310 
 230   0.0000       2.785825        75.8061 
 231   0.0000       2.807675        76.4007 
 232   0.0000       2.818553        76.6967 
 233   0.0000       2.850673        77.5708 
 234   0.0000       2.857719        77.7625 
 235   0.0000       2.878817        78.3366 
 236   0.0000       2.902292        78.9754 
 237   0.0000       2.926999        79.6477 
 238   0.0000       2.940526        80.0158 
 239   0.0000       2.948617        80.2360 
 240   0.0000       2.961710        80.5922 
 241   0.0000       2.969541        80.8053 
 242   0.0000       2.973905        80.9241 
 243   0.0000       2.984589        81.2148 
 244   0.0000       3.010265        81.9135 
 245   0.0000       3.018632        82.1411 
 246   0.0000       3.025145        82.3184 
 247   0.0000       3.036747        82.6341 
 248   0.0000       3.052368        83.0592 
 249   0.0000       3.063750        83.3689 
 250   0.0000       3.074605        83.6642 
 251   0.0000       3.095512        84.2332 
 252   0.0000       3.105008        84.4916 
 253   0.0000       3.107278        84.5533 
 254   0.0000       3.126641        85.0802 
 255   0.0000       3.136152        85.3390 
 256   0.0000       3.158367        85.9435 
 257   0.0000       3.177693        86.4694 
 258   0.0000       3.188975        86.7764 
 259   0.0000       3.197903        87.0194 
 260   0.0000       3.212580        87.4188 
 261   0.0000       3.218873        87.5900 
 262   0.0000       3.223880        87.7262 
 263   0.0000       3.245255        88.3079 
 264   0.0000       3.257237        88.6339 
 265   0.0000       3.268187        88.9319 
 266   0.0000       3.279437        89.2380 
 267   0.0000       3.307553        90.0031 
 268   0.0000       3.310100        90.0724 
 269   0.0000       3.320831        90.3644 
 270   0.0000       3.325764        90.4986 
 271   0.0000       3.336839        90.8000 
 272   0.0000       3.342103        90.9433 
 273   0.0000       3.364906        91.5637 
 274   0.0000       3.373324        91.7928 
 275   0.0000       3.389002        92.2194 
 276   0.0000       3.399001        92.4915 
 277   0.0000       3.408948        92.7622 
 278   0.0000       3.431353        93.3719 
 279   0.0000       3.442605        93.6780 
 280   0.0000       3.458347        94.1064 
 281   0.0000       3.467328        94.3508 
 282   0.0000       3.479521        94.6826 
 283   0.0000       3.499361        95.2225 
 284   0.0000       3.511375        95.5494 
 285   0.0000       3.555806        96.7584 
 286   0.0000       3.568983        97.1170 
 287   0.0000       3.606261        98.1313 
 288   0.0000       3.626799        98.6902 
 289   0.0000       3.658828        99.5618 
 290   0.0000       3.664798        99.7242 
 291   0.0000       3.677858       100.0796 
 292   0.0000       3.714570       101.0786 
 293   0.0000       3.724344       101.3446 
 294   0.0000       3.734175       101.6121 
 295   0.0000       3.790744       103.1514 
 296   0.0000       3.818719       103.9126 
 297   0.0000       3.849722       104.7562 
 298   0.0000       3.860202       105.0414 
 299   0.0000       3.882005       105.6347 
 300   0.0000       3.929841       106.9364 
 301   0.0000       3.942940       107.2928 
 302   0.0000       3.956724       107.6679 
 303   0.0000       4.000299       108.8537 
 304   0.0000       4.011035       109.1458 
 305   0.0000       4.048423       110.1632 
 306   0.0000       4.053012       110.2881 
 307   0.0000       4.095536       111.4452 
 308   0.0000       4.101838       111.6167 
 309   0.0000       4.130859       112.4064 
 310   0.0000       4.143172       112.7414 
 311   0.0000       4.186646       113.9244 
 312   0.0000       4.223013       114.9140 
 313   0.0000       4.230014       115.1045 
 314   0.0000       4.265976       116.0831 
 315   0.0000       4.289356       116.7193 
 316   0.0000       4.321913       117.6052 
 317   0.0000       4.336271       117.9959 
 318   0.0000       4.399007       119.7031 
 319   0.0000       4.420891       120.2986 
 320   0.0000       4.441525       120.8601 
 321   0.0000       4.455232       121.2330 
 322   0.0000       4.468564       121.5958 
 323   0.0000       4.542749       123.6145 
 324   0.0000       4.557936       124.0277 
 325   0.0000       4.566137       124.2509 
 326   0.0000       4.610107       125.4474 
 327   0.0000       4.674501       127.1997 
 328   0.0000       4.748627       129.2167 
 329   0.0000       4.808685       130.8510 
 330   0.0000       4.848905       131.9454 
 331   0.0000       4.888999       133.0364 
 332   0.0000       4.961343       135.0050 
 333   0.0000       4.966514       135.1457 
 334   0.0000       4.988155       135.7346 
 335   0.0000       5.007434       136.2592 
 336   0.0000       5.062764       137.7648 
 337   0.0000       5.121901       139.3740 
 338   0.0000       5.141446       139.9059 
 339   0.0000       5.183557       141.0518 
 340   0.0000       5.217907       141.9865 
 341   0.0000       5.270331       143.4130 
 342   0.0000       5.278803       143.6435 
 343   0.0000       5.357843       145.7943 
 344   0.0000       5.401229       146.9749 
 345   0.0000       5.457446       148.5047 
 346   0.0000       5.603953       152.4913 
 347   0.0000       5.669679       154.2798 
 348   0.0000       5.720067       155.6509 
 349   0.0000       5.749304       156.4465 
 350   0.0000       5.846290       159.0857 
 351   0.0000       5.944501       161.7581 
 352   0.0000       6.066963       165.0905 
 353   0.0000       6.371756       173.3843 
 354   0.0000       6.408892       174.3948 
 355   0.0000       6.622287       180.2016 
 356   0.0000       6.639588       180.6724 
 357   0.0000       6.827382       185.7825 
 358   0.0000       7.081691       192.7026 
 359   0.0000       7.099851       193.1968 
 360   0.0000      22.417342       610.0069 
 361   0.0000      22.505275       612.3997 
 362   0.0000      22.531060       613.1013 
 363   0.0000      22.664384       616.7292 
 364   0.0000      22.813229       620.7795 
 365   0.0000      22.950007       624.5014 
 366   0.0000      23.109463       628.8405 
 367   0.0000      23.506444       639.6429 
 368   0.0000      32.920022       895.7993 
 369   0.0000      44.126622      1200.7464 

                 SPIN DOWN ORBITALS
  NO   OCC          E(Eh)            E(eV) 
   0   1.0000     -19.574510      -532.6495 
   1   1.0000     -14.835105      -403.6837 
   2   1.0000     -10.604884      -288.5736 
   3   1.0000     -10.604131      -288.5531 
   4   1.0000     -10.591077      -288.1979 
   5   1.0000     -10.586148      -288.0637 
   6   1.0000     -10.565062      -287.4900 
   7   1.0000     -10.551629      -287.1244 
   8   1.0000     -10.543885      -286.9137 
   9   1.0000     -10.532478      -286.6033 
  10   1.0000      -1.117847       -30.4182 
  11   1.0000      -1.099932       -29.9307 
  12   1.0000      -0.931423       -25.3453 
  13   1.0000      -0.861265       -23.4362 
  14   1.0000      -0.847355       -23.0577 
  15   1.0000      -0.810864       -22.0647 
  16   1.0000      -0.753660       -20.5081 
  17   1.0000      -0.683099       -18.5881 
  18   1.0000      -0.672151       -18.2901 
  19   1.0000      -0.598909       -16.2972 
  20   1.0000      -0.597188       -16.2503 
  21   1.0000      -0.558950       -15.2098 
  22   1.0000      -0.539083       -14.6692 
  23   1.0000      -0.508280       -13.8310 
  24   1.0000      -0.502753       -13.6806 
  25   1.0000      -0.496215       -13.5027 
  26   1.0000      -0.487853       -13.2752 
  27   1.0000      -0.473578       -12.8867 
  28   1.0000      -0.464956       -12.6521 
  29   1.0000      -0.457752       -12.4561 
  30   1.0000      -0.434442       -11.8218 
  31   1.0000      -0.415716       -11.3122 
  32   1.0000      -0.405788       -11.0421 
  33   1.0000      -0.347994        -9.4694 
  34   1.0000      -0.304531        -8.2867 
  35   1.0000      -0.265768        -7.2319 
  36   0.0000      -0.070419        -1.9162 
  37   0.0000       0.028923         0.7870 
  38   0.0000       0.052281         1.4226 
  39   0.0000       0.052894         1.4393 
  40   0.0000       0.073746         2.0067 
  41   0.0000       0.090597         2.4653 
  42   0.0000       0.100658         2.7390 
  43   0.0000       0.109946         2.9918 
  44   0.0000       0.130859         3.5608 
  45   0.0000       0.139718         3.8019 
  46   0.0000       0.142003         3.8641 
  47   0.0000       0.145813         3.9678 
  48   0.0000       0.152328         4.1451 
  49   0.0000       0.156439         4.2569 
  50   0.0000       0.173328         4.7165 
  51   0.0000       0.174936         4.7603 
  52   0.0000       0.189404         5.1539 
  53   0.0000       0.208580         5.6758 
  54   0.0000       0.213144         5.8000 
  55   0.0000       0.220750         6.0069 
  56   0.0000       0.230280         6.2662 
  57   0.0000       0.240996         6.5578 
  58   0.0000       0.248088         6.7508 
  59   0.0000       0.261710         7.1215 
  60   0.0000       0.266965         7.2645 
  61   0.0000       0.281572         7.6620 
  62   0.0000       0.296911         8.0794 
  63   0.0000       0.307109         8.3569 
  64   0.0000       0.319485         8.6936 
  65   0.0000       0.322344         8.7714 
  66   0.0000       0.331199         9.0124 
  67   0.0000       0.334009         9.0888 
  68   0.0000       0.342781         9.3275 
  69   0.0000       0.345882         9.4119 
  70   0.0000       0.372193        10.1279 
  71   0.0000       0.375777        10.2254 
  72   0.0000       0.386067        10.5054 
  73   0.0000       0.399028        10.8581 
  74   0.0000       0.401504        10.9255 
  75   0.0000       0.410912        11.1815 
  76   0.0000       0.420679        11.4473 
  77   0.0000       0.435460        11.8495 
  78   0.0000       0.444684        12.1005 
  79   0.0000       0.459709        12.5093 
  80   0.0000       0.462205        12.5772 
  81   0.0000       0.470368        12.7994 
  82   0.0000       0.475643        12.9429 
  83   0.0000       0.490353        13.3432 
  84   0.0000       0.492350        13.3975 
  85   0.0000       0.503170        13.6920 
  86   0.0000       0.507585        13.8121 
  87   0.0000       0.521269        14.1844 
  88   0.0000       0.526528        14.3276 
  89   0.0000       0.539196        14.6723 
  90   0.0000       0.547812        14.9067 
  91   0.0000       0.561542        15.2803 
  92   0.0000       0.578370        15.7382 
  93   0.0000       0.591986        16.1088 
  94   0.0000       0.596858        16.2413 
  95   0.0000       0.603789        16.4299 
  96   0.0000       0.617575        16.8051 
  97   0.0000       0.625045        17.0083 
  98   0.0000       0.638654        17.3787 
  99   0.0000       0.652782        17.7631 
 100   0.0000       0.658623        17.9220 
 101   0.0000       0.676619        18.4117 
 102   0.0000       0.681388        18.5415 
 103   0.0000       0.708043        19.2668 
 104   0.0000       0.720227        19.5984 
 105   0.0000       0.722271        19.6540 
 106   0.0000       0.730609        19.8809 
 107   0.0000       0.742329        20.1998 
 108   0.0000       0.751180        20.4406 
 109   0.0000       0.780001        21.2249 
 110   0.0000       0.796341        21.6695 
 111   0.0000       0.807981        21.9863 
 112   0.0000       0.811044        22.0696 
 113   0.0000       0.839501        22.8440 
 114   0.0000       0.844585        22.9823 
 115   0.0000       0.862952        23.4821 
 116   0.0000       0.872417        23.7397 
 117   0.0000       0.891687        24.2640 
 118   0.0000       0.916022        24.9262 
 119   0.0000       0.932802        25.3828 
 120   0.0000       0.949564        25.8390 
 121   0.0000       0.962876        26.2012 
 122   0.0000       0.971602        26.4386 
 123   0.0000       0.978513        26.6267 
 124   0.0000       1.014583        27.6082 
 125   0.0000       1.016810        27.6688 
 126   0.0000       1.050485        28.5852 
 127   0.0000       1.063176        28.9305 
 128   0.0000       1.092769        29.7358 
 129   0.0000       1.098321        29.8868 
 130   0.0000       1.110963        30.2308 
 131   0.0000       1.126783        30.6613 
 132   0.0000       1.147368        31.2215 
 133   0.0000       1.163383        31.6573 
 134   0.0000       1.184424        32.2298 
 135   0.0000       1.202532        32.7225 
 136   0.0000       1.215612        33.0785 
 137   0.0000       1.236623        33.6502 
 138   0.0000       1.242301        33.8047 
 139   0.0000       1.284201        34.9449 
 140   0.0000       1.305508        35.5247 
 141   0.0000       1.327656        36.1274 
 142   0.0000       1.356416        36.9100 
 143   0.0000       1.364841        37.1392 
 144   0.0000       1.391872        37.8748 
 145   0.0000       1.401766        38.1440 
 146   0.0000       1.407385        38.2969 
 147   0.0000       1.440070        39.1863 
 148   0.0000       1.448059        39.4037 
 149   0.0000       1.469082        39.9758 
 150   0.0000       1.480110        40.2758 
 151   0.0000       1.504714        40.9454 
 152   0.0000       1.516432        41.2642 
 153   0.0000       1.531493        41.6741 
 154   0.0000       1.552740        42.2522 
 155   0.0000       1.563666        42.5495 
 156   0.0000       1.574378        42.8410 
 157   0.0000       1.578569        42.9550 
 158   0.0000       1.588282        43.2194 
 159   0.0000       1.606601        43.7178 
 160   0.0000       1.618457        44.0404 
 161   0.0000       1.633258        44.4432 
 162   0.0000       1.647431        44.8289 
 163   0.0000       1.649240        44.8781 
 164   0.0000       1.665502        45.3206 
 165   0.0000       1.676748        45.6266 
 166   0.0000       1.691550        46.0294 
 167   0.0000       1.702044        46.3150 
 168   0.0000       1.723084        46.8875 
 169   0.0000       1.727640        47.0115 
 170   0.0000       1.737889        47.2904 
 171   0.0000       1.747616        47.5550 
 172   0.0000       1.756834        47.8059 
 173   0.0000       1.799415        48.9646 
 174   0.0000       1.830450        49.8091 
 175   0.0000       1.834842        49.9286 
 176   0.0000       1.861806        50.6623 
 177   0.0000       1.880180        51.1623 
 178   0.0000       1.904767        51.8313 
 179   0.0000       1.907764        51.9129 
 180   0.0000       1.922848        52.3234 
 181   0.0000       1.939899        52.7873 
 182   0.0000       1.992987        54.2319 
 183   0.0000       1.997694        54.3600 
 184   0.0000       2.009870        54.6914 
 185   0.0000       2.017612        54.9020 
 186   0.0000       2.037085        55.4319 
 187   0.0000       2.053938        55.8905 
 188   0.0000       2.072134        56.3856 
 189   0.0000       2.082086        56.6564 
 190   0.0000       2.113884        57.5217 
 191   0.0000       2.115200        57.5575 
 192   0.0000       2.144413        58.3525 
 193   0.0000       2.166091        58.9423 
 194   0.0000       2.176181        59.2169 
 195   0.0000       2.193532        59.6890 
 196   0.0000       2.224988        60.5450 
 197   0.0000       2.247124        61.1473 
 198   0.0000       2.267352        61.6978 
 199   0.0000       2.280991        62.0689 
 200   0.0000       2.296372        62.4875 
 201   0.0000       2.310823        62.8807 
 202   0.0000       2.322034        63.1858 
 203   0.0000       2.338843        63.6431 
 204   0.0000       2.356070        64.1119 
 205   0.0000       2.374126        64.6032 
 206   0.0000       2.380184        64.7681 
 207   0.0000       2.411889        65.6308 
 208   0.0000       2.436023        66.2876 
 209   0.0000       2.446583        66.5749 
 210   0.0000       2.472787        67.2879 
 211   0.0000       2.490882        67.7803 
 212   0.0000       2.498908        67.9988 
 213   0.0000       2.505991        68.1915 
 214   0.0000       2.511007        68.3280 
 215   0.0000       2.540812        69.1390 
 216   0.0000       2.544888        69.2499 
 217   0.0000       2.563554        69.7578 
 218   0.0000       2.574939        70.0677 
 219   0.0000       2.582656        70.2776 
 220   0.0000       2.599216        70.7283 
 221   0.0000       2.619095        71.2692 
 222   0.0000       2.651889        72.1616 
 223   0.0000       2.661110        72.4125 
 224   0.0000       2.667049        72.5741 
 225   0.0000       2.695037        73.3357 
 226   0.0000       2.718630        73.9777 
 227   0.0000       2.731935        74.3397 
 228   0.0000       2.743266        74.6481 
 229   0.0000       2.788660        75.8833 
 230   0.0000       2.793112        76.0044 
 231   0.0000       2.816961        76.6534 
 232   0.0000       2.824059        76.8466 
 233   0.0000       2.859940        77.8229 
 234   0.0000       2.863011        77.9065 
 235   0.0000       2.885047        78.5061 
 236   0.0000       2.910548        79.2000 
 237   0.0000       2.935309        79.8738 
 238   0.0000       2.945676        80.1559 
 239   0.0000       2.958036        80.4923 
 240   0.0000       2.969046        80.7919 
 241   0.0000       2.976745        81.0013 
 242   0.0000       2.980611        81.1066 
 243   0.0000       3.006075        81.7995 
 244   0.0000       3.017871        82.1205 
 245   0.0000       3.027730        82.3887 
 246   0.0000       3.033448        82.5443 
 247   0.0000       3.041528        82.7642 
 248   0.0000       3.056849        83.1811 
 249   0.0000       3.071719        83.5857 
 250   0.0000       3.080567        83.8265 
 251   0.0000       3.098958        84.3269 
 252   0.0000       3.111822        84.6770 
 253   0.0000       3.113300        84.7172 
 254   0.0000       3.133349        85.2628 
 255   0.0000       3.152908        85.7950 
 256   0.0000       3.169852        86.2561 
 257   0.0000       3.185854        86.6915 
 258   0.0000       3.195788        86.9618 
 259   0.0000       3.206706        87.2589 
 260   0.0000       3.221642        87.6653 
 261   0.0000       3.228820        87.8606 
 262   0.0000       3.234338        88.0108 
 263   0.0000       3.250189        88.4421 
 264   0.0000       3.266262        88.8795 
 265   0.0000       3.272958        89.0617 
 266   0.0000       3.286688        89.4353 
 267   0.0000       3.308981        90.0420 
 268   0.0000       3.321087        90.3714 
 269   0.0000       3.322187        90.4013 
 270   0.0000       3.339600        90.8751 
 271   0.0000       3.341939        90.9388 
 272   0.0000       3.353119        91.2430 
 273   0.0000       3.370555        91.7175 
 274   0.0000       3.376422        91.8771 
 275   0.0000       3.398816        92.4865 
 276   0.0000       3.405466        92.6674 
 277   0.0000       3.418324        93.0173 
 278   0.0000       3.438181        93.5577 
 279   0.0000       3.449000        93.8521 
 280   0.0000       3.465991        94.3144 
 281   0.0000       3.477153        94.6182 
 282   0.0000       3.487374        94.8963 
 283   0.0000       3.504290        95.3566 
 284   0.0000       3.517838        95.7252 
 285   0.0000       3.561860        96.9231 
 286   0.0000       3.577353        97.3447 
 287   0.0000       3.610804        98.2550 
 288   0.0000       3.632326        98.8406 
 289   0.0000       3.663459        99.6878 
 290   0.0000       3.669567        99.8540 
 291   0.0000       3.684231       100.2530 
 292   0.0000       3.719780       101.2203 
 293   0.0000       3.731280       101.5333 
 294   0.0000       3.742925       101.8502 
 295   0.0000       3.794583       103.2559 
 296   0.0000       3.825919       104.1085 
 297   0.0000       3.858702       105.0006 
 298   0.0000       3.874959       105.4430 
 299   0.0000       3.888140       105.8017 
 300   0.0000       3.941120       107.2433 
 301   0.0000       3.949555       107.4729 
 302   0.0000       3.964590       107.8820 
 303   0.0000       4.006127       109.0123 
 304   0.0000       4.015602       109.2701 
 305   0.0000       4.050346       110.2155 
 306   0.0000       4.056600       110.3857 
 307   0.0000       4.102913       111.6459 
 308   0.0000       4.124495       112.2332 
 309   0.0000       4.139417       112.6393 
 310   0.0000       4.151944       112.9801 
 311   0.0000       4.192727       114.0899 
 312   0.0000       4.228376       115.0600 
 313   0.0000       4.236073       115.2694 
 314   0.0000       4.269837       116.1882 
 315   0.0000       4.300122       117.0123 
 316   0.0000       4.324739       117.6821 
 317   0.0000       4.339428       118.0818 
 318   0.0000       4.406470       119.9061 
 319   0.0000       4.427746       120.4851 
 320   0.0000       4.448803       121.0581 
 321   0.0000       4.467562       121.5685 
 322   0.0000       4.478177       121.8574 
 323   0.0000       4.549655       123.8024 
 324   0.0000       4.563721       124.1852 
 325   0.0000       4.580413       124.6394 
 326   0.0000       4.616366       125.6177 
 327   0.0000       4.684707       127.4774 
 328   0.0000       4.760667       129.5443 
 329   0.0000       4.820325       131.1677 
 330   0.0000       4.859625       132.2371 
 331   0.0000       4.899526       133.3229 
 332   0.0000       4.973496       135.3357 
 333   0.0000       4.974870       135.3731 
 334   0.0000       4.991639       135.8294 
 335   0.0000       5.038453       137.1033 
 336   0.0000       5.073931       138.0687 
 337   0.0000       5.135353       139.7401 
 338   0.0000       5.144782       139.9966 
 339   0.0000       5.196220       141.3963 
 340   0.0000       5.224209       142.1579 
 341   0.0000       5.280541       143.6908 
 342   0.0000       5.287608       143.8831 
 343   0.0000       5.370124       146.1285 
 344   0.0000       5.410497       147.2271 
 345   0.0000       5.467796       148.7863 
 346   0.0000       5.613849       152.7606 
 347   0.0000       5.668796       154.2558 
 348   0.0000       5.724209       155.7636 
 349   0.0000       5.752721       156.5395 
 350   0.0000       5.847554       159.1200 
 351   0.0000       5.948581       161.8691 
 352   0.0000       6.080233       165.4516 
 353   0.0000       6.379473       173.5943 
 354   0.0000       6.442653       175.3135 
 355   0.0000       6.629487       180.3975 
 356   0.0000       6.665737       181.3839 
 357   0.0000       6.851733       186.4451 
 358   0.0000       7.091615       192.9726 
 359   0.0000       7.105816       193.3591 
 360   0.0000      22.419143       610.0559 
 361   0.0000      22.505571       612.4077 
 362   0.0000      22.531693       613.1185 
 363   0.0000      22.666793       616.7948 
 364   0.0000      22.818281       620.9170 
 365   0.0000      22.949028       624.4748 
 366   0.0000      23.111383       628.8927 
 367   0.0000      23.507923       639.6831 
 368   0.0000      32.919840       895.7944 
 369   0.0000      44.126068      1200.7314 

                    ********************************
                    * MULLIKEN POPULATION ANALYSIS *
                    ********************************

--------------------------------------------
MULLIKEN ATOMIC CHARGES AND SPIN POPULATIONS
--------------------------------------------
   0 N :   -0.036708    0.162545
   1 C :   -0.325285   -0.013203
   2 C :   -0.110688    0.352734
   3 C :    0.159566    0.024695
   4 O :   -0.406480    0.227712
   5 C :    0.050725   -0.141855
   6 C :   -0.351058    0.336415
   7 C :    0.010296    0.195398
   8 C :   -0.527354   -0.003020
   9 C :   -0.062555   -0.132170
  10 H :    0.173447    0.012946
  11 H :    0.155717    0.001880
  12 H :    0.159589    0.004457
  13 H :    0.169792   -0.015024
  14 H :    0.145092   -0.016145
[...]
     31       0.043734  -0.035445  -0.002529   0.116173  -0.000079  -0.098425
     32      -0.069015  -0.003080  -0.016312   0.723991  -0.000465  -0.565328
     33       0.208302  -0.042738  -0.003280   0.145982   0.000166   0.219342
     34      -0.034420   0.001258  -0.007886   0.349359   0.000468   0.529685
     35       0.065257  -0.014280   0.006586  -0.288761  -0.000391  -0.404146
     36       0.014891   0.058088  -0.003035   0.144271   0.000167   0.127738
     37       0.039612   0.011620   0.007857  -0.362749  -0.000503  -0.322526
     38      -0.016212   0.027868   0.003289  -0.148552  -0.000138  -0.107764
     39      -0.295035   0.230811  -0.001007  -0.006663  -0.000004  -0.005700
     40      -0.158584   0.096022   0.001459   0.008517   0.000015   0.009004
     41       0.009171  -0.008369   0.000019   0.000174   0.000183   0.000601
     42      -0.033602  -0.261174   0.005562  -0.001680   0.000719   0.000178
     43      -0.088286  -0.277523  -0.008130   0.002641  -0.001042  -0.000237
     44       0.001529   0.010600  -0.000109   0.000080  -0.000009  -0.000006
     45      -0.016821  -0.139087  -0.000522  -0.001709   0.000232   0.000113
     46       0.081602   0.224660   0.001550  -0.003223   0.000518   0.000179
     47      -0.000071   0.004417   0.000023   0.000110   0.000121  -0.000015
     48       0.131954   0.092918  -0.381725  -0.008897   0.436940  -0.000334
     49      -0.067289  -0.031654   0.045348   0.001178  -0.055983  -0.000007
     50      -0.087272  -0.068240  -0.507895  -0.011707   0.543779  -0.000542
     51      -0.112975  -0.069674   0.300848   0.005690   0.008114  -0.000253
     52       0.090945   0.052916   0.336408   0.006536   0.009772  -0.000389
     53       0.002880   0.001700  -0.009867  -0.000224  -0.017097   0.000058
     54       0.138821   0.097768  -0.342146  -0.007928  -0.408111   0.000323
     55      -0.069140  -0.032596   0.046334   0.001215   0.058641   0.000057
     56       0.080191   0.062973   0.517730   0.011819   0.575650  -0.000566
     57      -0.386990  -0.147210  -0.002243  -0.006727  -0.000072  -0.009286
     58       0.464231   0.219093  -0.005204  -0.007154  -0.000123  -0.013225
     59       0.013488   0.004121   0.000075  -0.000089  -0.000141   0.001334
                 54         55         56         57         58         59    
      0      -0.000196  -0.000375  -0.000511   0.001287  -0.001553  -0.000030
      1      -0.000182  -0.000781  -0.000000  -0.000623  -0.001248  -0.000020
      2       0.000014  -0.000013   0.000058  -0.000109   0.000107   0.000004
      3       0.000103   0.008208   0.000311   0.000402  -0.001280   0.000025
      4      -0.000144  -0.093272   0.000397   0.003539   0.003262   0.000022
      5       0.000000  -0.006514   0.000144  -0.000873   0.001120  -0.000002
      6       0.000092  -0.002048   0.000933  -0.007215  -0.047890  -0.000284
      7       0.000064   0.003243  -0.000386   0.008230   0.071472   0.000547
      8      -0.000006   0.000304  -0.000044   0.000156   0.001244   0.000007
      9       0.000173   0.000089  -0.000444   0.000528   0.002730   0.000434
     10      -0.000106   0.000142   0.001422  -0.000020   0.000007   0.000341
     11      -0.000006   0.000040   0.000010  -0.000018  -0.000115  -0.000015
     12      -0.000057   0.000005  -0.000278   0.000044  -0.000119  -0.000293
     13       0.000035   0.000027  -0.000213   0.000065   0.000259  -0.000043
     14       0.000004  -0.000020   0.000009  -0.000002   0.000012   0.000017
     15       0.000243   0.000010  -0.005099  -0.001156   0.000056   0.000548
     16      -0.000171  -0.000005  -0.000303  -0.000652  -0.000008   0.000941
     17      -0.000005  -0.000006   0.000189   0.000062  -0.000011  -0.000023
     18      -0.000853   0.000273   0.065846   0.001100   0.000532  -0.003206
     19       0.000666   0.000022   0.000920  -0.000486  -0.000591   0.099479
     20       0.000028  -0.000021  -0.002277  -0.000041  -0.000012  -0.000316
     21       0.001726  -0.000277  -0.000962  -0.004197   0.000182  -0.000574
     22      -0.000419   0.000115  -0.001104   0.001177  -0.000102   0.000089
     23      -0.000064   0.000006   0.000037   0.000179  -0.000016   0.000021
     24       0.076692  -0.000074   0.000784   0.001159  -0.000021  -0.000523
     25       0.051585  -0.000084   0.000066   0.001049  -0.000167   0.000058
     26      -0.003295   0.000013  -0.000141  -0.000064   0.000001   0.000062
     27      -0.001272   0.001441   0.000554   0.050546  -0.006022   0.000305
     28      -0.001321   0.002236  -0.000645   0.069601  -0.010997   0.000268
     29       0.000034  -0.000302  -0.000034  -0.001759   0.000260  -0.000013
     30      -0.000304   0.037705  -0.001629  -0.001658   0.000840  -0.000110
     31      -0.000107  -0.000621  -0.000586   0.001227   0.000134  -0.000040
     32      -0.000726   0.110776  -0.003976  -0.001591  -0.003083  -0.000246
     33       0.000049   0.165733  -0.001295  -0.011641   0.000617  -0.000113
     34       0.000210   0.386414  -0.002869  -0.024088  -0.004656  -0.000320
     35      -0.000111  -0.320674   0.002427   0.019353   0.003210   0.000227
     36      -0.000811  -0.292694   0.000432   0.005548   0.016239   0.000019
     37       0.001894   0.725716  -0.001248  -0.018716  -0.035058  -0.000112
     38       0.000754   0.287777  -0.000438  -0.006964  -0.013745  -0.000035
     39      -0.000900   0.024303  -0.003554   0.075377   0.552198   0.003966
     40       0.000972  -0.034319   0.006583  -0.111125  -0.817026  -0.006057
     41       0.000034  -0.001112   0.000101  -0.001978  -0.014921  -0.000101
     42       0.005466  -0.001923  -0.392795  -0.005579  -0.005219   0.379937
     43      -0.010713   0.002852   0.604772   0.008414   0.007474  -0.571264
     44      -0.000133   0.000015   0.010994   0.000177   0.000192  -0.010603
     45       0.000179  -0.001371  -0.318577  -0.000199   0.000113  -0.347143
     46       0.002012  -0.002723  -0.611116  -0.001443   0.000008  -0.631180
     47      -0.000010   0.000068   0.013526  -0.000040  -0.000023   0.014519
     48      -0.174295   0.000266  -0.004528  -0.000991  -0.000976   0.003742
     49       0.033560  -0.000061  -0.000144  -0.000746   0.000465  -0.000053
     50      -0.249109   0.000256  -0.005924  -0.001778  -0.001072   0.004841
     51      -0.583803   0.000781  -0.004345  -0.010308   0.001143   0.002992
     52      -0.674356   0.000946  -0.002934  -0.015102   0.001765   0.002022
     53       0.019537  -0.000037   0.000129   0.000358  -0.000036  -0.000104
     54      -0.166399   0.000024  -0.005195  -0.000934  -0.000886   0.003832
     55       0.035745   0.000029   0.000024  -0.000810   0.000470  -0.000134
     56       0.269256  -0.000092   0.007611   0.001950   0.001117  -0.005605
     57       0.008090  -0.018514   0.005160  -0.558740   0.075585  -0.003020
     58       0.015143  -0.023952   0.006516  -0.812300   0.110453  -0.004285
     59      -0.000267   0.000732  -0.000181   0.020151  -0.002768   0.000106


-----------
IR SPECTRUM
-----------

 Mode   freq       eps      Int      T**2         TX        TY        TZ
       cm**-1   L/(mol*cm) km/mol    a.u.
----------------------------------------------------------------------------
  6:     83.49   0.000588    2.97  0.002198  (-0.000114 -0.000019 -0.046880)
  7:    114.56   0.000051    0.26  0.000138  ( 0.010285  0.002247  0.005188)
  8:    161.56   0.000173    0.87  0.000334  ( 0.006587  0.000674 -0.017021)
  9:    207.51   0.000204    1.03  0.000306  ( 0.001094  0.000750  0.017446)
 10:    237.02   0.000293    1.48  0.000385  (-0.001450  0.000706  0.019563)
 11:    298.07   0.000117    0.59  0.000122  ( 0.000524 -0.010621  0.003011)
 12:    309.66   0.000294    1.49  0.000297  ( 0.007434  0.002743  0.015294)
 13:    344.70   0.000155    0.78  0.000140  (-0.011797 -0.000867 -0.000078)
 14:    358.62   0.000280    1.42  0.000244  (-0.010070  0.011936  0.000351)
 15:    437.49   0.001600    8.09  0.001141  ( 0.020201 -0.027052 -0.001174)
 16:    486.80   0.000300    1.51  0.000192  ( 0.004732  0.002920 -0.012696)
 17:    531.20   0.000873    4.41  0.000513  (-0.005237 -0.002837  0.021855)
 18:    534.94   0.000616    3.11  0.000359  ( 0.006115  0.017928  0.000824)
 19:    584.52   0.000117    0.59  0.000063  (-0.006567  0.003941 -0.001968)
 20:    604.51   0.000579    2.93  0.000299  ( 0.004562 -0.016596 -0.001696)
 21:    710.42   0.000010    0.05  0.000005  ( 0.001740  0.000404  0.001149)
 22:    744.05   0.000064    0.32  0.000027  (-0.000851  0.000250 -0.005097)
 23:    807.73   0.001231    6.22  0.000475  (-0.013598 -0.017042 -0.000383)
 24:    833.70   0.005768   29.15  0.002159  (-0.004445 -0.000318 -0.046251)
 25:    856.75   0.003581   18.10  0.001304  ( 0.004453  0.000718  0.035834)
 26:    906.55   0.000112    0.56  0.000038  ( 0.001167 -0.005951  0.001277)
 27:    926.97   0.007611   38.46  0.002562  (-0.001371 -0.000286 -0.050599)
 28:   1015.78   0.000334    1.69  0.000103  (-0.008475 -0.005539  0.000466)
 29:   1035.28   0.001163    5.88  0.000351  (-0.018553 -0.001911  0.001673)
 30:   1058.29   0.000173    0.87  0.000051  (-0.000150 -0.001126  0.007044)
 31:   1122.18   0.001603    8.10  0.000446  (-0.016293 -0.013419  0.000432)
 32:   1146.94   0.004237   21.41  0.001153  ( 0.033479  0.005660 -0.000035)
 33:   1162.89   0.002153   10.88  0.000578  ( 0.023429  0.005282 -0.000982)
 34:   1218.77   0.019657   99.34  0.005033  (-0.070893 -0.002669  0.000600)
 35:   1266.85   0.000569    2.88  0.000140  ( 0.006978  0.009558 -0.000401)
 36:   1348.29   0.001900    9.60  0.000440  ( 0.020665  0.003470  0.000802)
 37:   1394.76   0.001793    9.06  0.000401  (-0.019401  0.004966  0.000246)
 38:   1412.63   0.000039    0.20  0.000009  ( 0.001827 -0.002234  0.000452)
 39:   1425.45   0.003634   18.36  0.000795  ( 0.025034 -0.012973 -0.000705)
 40:   1456.36   0.000478    2.42  0.000102  ( 0.008882  0.004761  0.000961)
 41:   1465.61   0.002394   12.10  0.000510  (-0.019710 -0.011009 -0.000112)
 42:   1476.42   0.001829    9.24  0.000387  ( 0.000867  0.000358  0.019641)
 43:   1493.42   0.001976    9.99  0.000413  ( 0.004405  0.001924 -0.019745)
 44:   1499.91   0.003674   18.57  0.000764  (-0.023552 -0.014146  0.003082)
 45:   1517.75   0.003449   17.43  0.000709  ( 0.012117 -0.023609 -0.002222)
 46:   1565.16   0.034259  173.13  0.006831  ( 0.061305  0.055400 -0.001806)
 47:   1599.64   0.012574   63.54  0.002453  ( 0.030204  0.039247 -0.000576)
 48:   1660.26   0.002335   11.80  0.000439  ( 0.002071 -0.020845  0.000077)
 49:   1671.77   0.028091  141.96  0.005244  ( 0.034384  0.063725 -0.000765)
 50:   3062.50   0.004384   22.16  0.000447  ( 0.010691 -0.018233  0.000036)
 51:   3077.00   0.008508   43.00  0.000863  (-0.028859 -0.003311 -0.004366)
 52:   3124.08   0.001382    6.98  0.000138  (-0.000472 -0.000221 -0.011736)
 53:   3155.56   0.001305    6.59  0.000129  (-0.002919 -0.001319  0.010897)
 54:   3159.83   0.001968    9.94  0.000194  ( 0.008966  0.010661 -0.000516)
 55:   3190.35   0.000459    2.32  0.000045  ( 0.000970 -0.006606 -0.000554)
 56:   3192.98   0.000769    3.89  0.000075  (-0.002557 -0.008284  0.000034)
 57:   3239.03   0.000478    2.42  0.000046  ( 0.000171  0.006784 -0.000114)
 58:   3252.99   0.000594    3.00  0.000057  ( 0.007535  0.000424 -0.000016)
 59:   3289.04   0.000159    0.81  0.000015  (-0.003660  0.001311  0.000105)

* The epsilon (eps) is given for a Dirac delta lineshape.
** The dipole moment derivative (T) already includes vibrational overlap.

The first frequency considered to be a vibration is 6
The total number of vibrations considered is 54


--------------------------
THERMOCHEMISTRY AT 298.15K
--------------------------

Temperature         ... 298.15 K
Pressure            ... 1.00 atm
Total Mass          ... 136.17 AMU

Throughout the following assumptions are being made:
  (1) The electronic state is orbitally nondegenerate
      but the spin degeneracy is treated
  (2) There are no thermally accessible electronically excited states
  (3) Hindered rotations indicated by low frequency modes are not
      treated as such but are treated as vibrations and this may
      cause some error
  (4) All equations used are the standard statistical mechanics
      equations for an ideal gas
  (5) All vibrations are strictly harmonic

freq.      83.49  E(vib)   ...       0.48 
freq.     114.56  E(vib)   ...       0.44 
freq.     161.56  E(vib)   ...       0.39 
freq.     207.51  E(vib)   ...       0.34 
freq.     237.02  E(vib)   ...       0.32 
freq.     298.07  E(vib)   ...       0.27 
freq.     309.66  E(vib)   ...       0.26 
freq.     344.70  E(vib)   ...       0.23 
freq.     358.62  E(vib)   ...       0.22 
freq.     437.49  E(vib)   ...       0.17 
freq.     486.80  E(vib)   ...       0.15 
freq.     531.20  E(vib)   ...       0.13 
freq.     534.94  E(vib)   ...       0.13 
freq.     584.52  E(vib)   ...       0.11 
freq.     604.51  E(vib)   ...       0.10 
freq.     710.42  E(vib)   ...       0.07 
freq.     744.05  E(vib)   ...       0.06 
freq.     807.73  E(vib)   ...       0.05 
freq.     833.70  E(vib)   ...       0.04 
freq.     856.75  E(vib)   ...       0.04 
freq.     906.55  E(vib)   ...       0.03 
freq.     926.97  E(vib)   ...       0.03 
freq.    1015.78  E(vib)   ...       0.02 
freq.    1035.28  E(vib)   ...       0.02 
freq.    1058.29  E(vib)   ...       0.02 
freq.    1122.18  E(vib)   ...       0.01 
freq.    1146.94  E(vib)   ...       0.01 
freq.    1162.89  E(vib)   ...       0.01 
freq.    1218.77  E(vib)   ...       0.01 
freq.    1266.85  E(vib)   ...       0.01 
freq.    1348.29  E(vib)   ...       0.01 
freq.    1394.76  E(vib)   ...       0.00 
freq.    1412.63  E(vib)   ...       0.00 
freq.    1425.45  E(vib)   ...       0.00 
freq.    1456.36  E(vib)   ...       0.00 
freq.    1465.61  E(vib)   ...       0.00 
freq.    1476.42  E(vib)   ...       0.00 
freq.    1493.42  E(vib)   ...       0.00 
freq.    1499.91  E(vib)   ...       0.00 
freq.    1517.75  E(vib)   ...       0.00 
freq.    1565.16  E(vib)   ...       0.00 
freq.    1599.64  E(vib)   ...       0.00 
freq.    1660.26  E(vib)   ...       0.00 
freq.    1671.77  E(vib)   ...       0.00 
freq.    3062.50  E(vib)   ...       0.00 
freq.    3077.00  E(vib)   ...       0.00 
freq.    3124.08  E(vib)   ...       0.00 
freq.    3155.56  E(vib)   ...       0.00 
freq.    3159.83  E(vib)   ...       0.00 
freq.    3190.35  E(vib)   ...       0.00 
freq.    3192.98  E(vib)   ...       0.00 
freq.    3239.03  E(vib)   ...       0.00 
freq.    3252.99  E(vib)   ...       0.00 
freq.    3289.04  E(vib)   ...       0.00 

------------
INNER ENERGY
------------

The inner energy is: U= E(el) + E(ZPE) + E(vib) + E(rot) + E(trans)
    E(el)   - is the total energy from the electronic structure calculation
              = E(kin-el) + E(nuc-el) + E(el-el) + E(nuc-nuc)
    E(ZPE)  - the the zero temperature vibrational energy from the frequency calculation
    E(vib)  - the the finite temperature correction to E(ZPE) due to population
              of excited vibrational states
    E(rot)  - is the rotational thermal energy
    E(trans)- is the translational thermal energy

Summary of contributions to the inner energy U:
Electronic energy                ...   -440.76757181 Eh
Zero point energy                ...      0.16593853 Eh     104.13 kcal/mol
Thermal vibrational correction   ...      0.00671446 Eh       4.21 kcal/mol
Thermal rotational correction    ...      0.00141627 Eh       0.89 kcal/mol
Thermal translational correction ...      0.00141627 Eh       0.89 kcal/mol
-----------------------------------------------------------------------
Total thermal energy                   -440.59208627 Eh


Summary of corrections to the electronic energy:
(perhaps to be used in another calculation)
Total thermal correction                  0.00954700 Eh       5.99 kcal/mol
Non-thermal (ZPE) correction              0.16593853 Eh     104.13 kcal/mol
-----------------------------------------------------------------------
Total correction                          0.17548553 Eh     110.12 kcal/mol


--------
ENTHALPY
--------

The enthalpy is H = U + kB*T
                kB is Boltzmann's constant
Total free energy                 ...   -440.59208627 Eh 
Thermal Enthalpy correction       ...      0.00094421 Eh       0.59 kcal/mol
-----------------------------------------------------------------------
Total Enthalpy                    ...   -440.59114206 Eh


Note: Only C1 symmetry has been detected, increase convergence thresholds 
      if your molecule has a higher symmetry. Symmetry factor of 1.0 is   
      used for the rotational entropy correction. 
 

Note: Rotational entropy computed according to Herzberg 
Infrared and Raman Spectra, Chapter V,1, Van Nostrand Reinhold, 1945 
Point Group:  C1, Symmetry Number:   1  
Rotational constants in cm-1:     0.059817     0.045174     0.025991 

Vibrational entropy computed according to the QRRHO of S. Grimme
Chem.Eur.J. 2012 18 9955


-------
ENTROPY
-------

The entropy contributions are T*S = T*(S(el)+S(vib)+S(rot)+S(trans))
     S(el)   - electronic entropy
     S(vib)  - vibrational entropy
     S(rot)  - rotational entropy
     S(trans)- translational entropy
The entropies will be listed as multiplied by the temperature to get
units of energy

Electronic entropy                ...      0.00065446 Eh      0.41 kcal/mol
Vibrational entropy               ...      0.01114742 Eh      7.00 kcal/mol
Rotational entropy                ...      0.01402574 Eh      8.80 kcal/mol
Translational entropy             ...      0.01930853 Eh     12.12 kcal/mol
-----------------------------------------------------------------------
Final entropy term                ...      0.04513615 Eh     28.32 kcal/mol

In case the symmetry of your molecule has not been determined correctly
or in case you have a reason to use a different symmetry number we print 
out the resulting rotational entropy values for sn=1,12 :
 --------------------------------------------------------
|  sn= 1 | S(rot)=       0.01402574 Eh      8.80 kcal/mol|
|  sn= 2 | S(rot)=       0.01337128 Eh      8.39 kcal/mol|
|  sn= 3 | S(rot)=       0.01298845 Eh      8.15 kcal/mol|
|  sn= 4 | S(rot)=       0.01271683 Eh      7.98 kcal/mol|
|  sn= 5 | S(rot)=       0.01250614 Eh      7.85 kcal/mol|
|  sn= 6 | S(rot)=       0.01233399 Eh      7.74 kcal/mol|
|  sn= 7 | S(rot)=       0.01218845 Eh      7.65 kcal/mol|
|  sn= 8 | S(rot)=       0.01206237 Eh      7.57 kcal/mol|
|  sn= 9 | S(rot)=       0.01195116 Eh      7.50 kcal/mol|
|  sn=10 | S(rot)=       0.01185168 Eh      7.44 kcal/mol|
|  sn=11 | S(rot)=       0.01176169 Eh      7.38 kcal/mol|
|  sn=12 | S(rot)=       0.01167954 Eh      7.33 kcal/mol|
 --------------------------------------------------------


-------------------
GIBBS FREE ENERGY
-------------------

The Gibbs free energy is G = H - T*S

Total enthalpy                    ...   -440.59114206 Eh 
Total entropy correction          ...     -0.04513615 Eh    -28.32 kcal/mol
-----------------------------------------------------------------------
Final Gibbs free energy         ...   -440.63627821 Eh

For completeness - the Gibbs free energy minus the electronic energy
G-E(el)                           ...      0.13129359 Eh     82.39 kcal/mol


Timings for individual modules:

Sum of individual times         ...     1596.610 sec (=  26.610 min)
GTO integral calculation        ...       44.957 sec (=   0.749 min)   2.8 %
SCF iterations                  ...      907.463 sec (=  15.124 min)  56.8 %
SCF Gradient evaluation         ...       76.111 sec (=   1.269 min)   4.8 %
Geometry relaxation             ...        0.766 sec (=   0.013 min)   0.0 %
Analytical frequency calculation...      567.313 sec (=   9.455 min)  35.5 %
                             ****ORCA TERMINATED NORMALLY****
TOTAL RUN TIME: 0 days 0 hours 27 minutes 25 seconds 542 msec
