
                                 *****************
                                 * O   R   C   A *
                                 *****************

                                            #,                                       
                                            ###                                      
                                            ####                                     
                                            #####                                    
                                            ######                                   
                                           ########,                                 
                                     ,,################,,,,,                         
                               ,,#################################,,                 
                          ,,##########################################,,             
                       ,#########################################, ''#####,          
                    ,#############################################,,   '####,        
                  ,##################################################,,,,####,       
                ,###########''''           ''''###############################       
              ,#####''   ,,,,##########,,,,          '''####'''          '####       
            ,##' ,,,,###########################,,,                        '##       
           ' ,,###''''                  '''############,,,                           
         ,,##''                                '''############,,,,        ,,,,,,###''
      ,#''                                            '''#######################'''  
     '                                                          ''''####''''         
             ,#######,   #######,   ,#######,      ##                                
            ,#'     '#,  ##    ##  ,#'     '#,    #''#        ######   ,####,        
            ##       ##  ##   ,#'  ##            #'  '#       #        #'  '#        
            ##       ##  #######   ##           ,######,      #####,   #    #        
            '#,     ,#'  ##    ##  '#,     ,#' ,#      #,         ##   #,  ,#        
             '#######'   ##     ##  '#######'  #'      '#     #####' # '####'        



                  #######################################################
                  #                        -***-                        #
                  #          Department of theory and spectroscopy      #
                  #    Directorship and core code : Frank Neese         #
                  #        Max Planck Institute fuer Kohlenforschung    #
                  #                Kaiser Wilhelm Platz 1               #
                  #                 D-45470 Muelheim/Ruhr               #
                  #                      Germany                        #
                  #                                                     #
                  #                  All rights reserved                #
                  #                        -***-                        #
                  #######################################################


                         Program Version 5.0.4 -  RELEASE  -


 With contributions from (in alphabetic order):
   Daniel Aravena         : Magnetic Suceptibility
   Michael Atanasov       : Ab Initio Ligand Field Theory (pilot matlab implementation)
   Alexander A. Auer      : GIAO ZORA, VPT2 properties, NMR spectrum
   Ute Becker             : Parallelization
   Giovanni Bistoni       : ED, misc. LED, open-shell LED, HFLD
   Martin Brehm           : Molecular dynamics
   Dmytro Bykov           : SCF Hessian
   Vijay G. Chilkuri      : MRCI spin determinant printing, contributions to CSF-ICE
   Dipayan Datta          : RHF DLPNO-CCSD density
   Achintya Kumar Dutta   : EOM-CC, STEOM-CC
   Dmitry Ganyushin       : Spin-Orbit,Spin-Spin,Magnetic field MRCI
   Miquel Garcia          : C-PCM and meta-GGA Hessian, CC/C-PCM, Gaussian charge scheme
   Yang Guo               : DLPNO-NEVPT2, F12-NEVPT2, CIM, IAO-localization
   Andreas Hansen         : Spin unrestricted coupled pair/coupled cluster methods
   Benjamin Helmich-Paris : MC-RPA, TRAH-SCF, COSX integrals
   Lee Huntington         : MR-EOM, pCC
   Robert Izsak           : Overlap fitted RIJCOSX, COSX-SCS-MP3, EOM
   Marcus Kettner         : VPT2
   Christian Kollmar      : KDIIS, OOCD, Brueckner-CCSD(T), CCSD density, CASPT2, CASPT2-K
   Simone Kossmann        : Meta GGA functionals, TD-DFT gradient, OOMP2, MP2 Hessian
   Martin Krupicka        : Initial AUTO-CI
   Lucas Lang             : DCDCAS
   Marvin Lechner         : AUTO-CI (C++ implementation), FIC-MRCC
   Dagmar Lenk            : GEPOL surface, SMD
   Dimitrios Liakos       : Extrapolation schemes; Compound Job, initial MDCI parallelization
   Dimitrios Manganas     : Further ROCIS development; embedding schemes
   Dimitrios Pantazis     : SARC Basis sets
   Anastasios Papadopoulos: AUTO-CI, single reference methods and gradients
   Taras Petrenko         : DFT Hessian,TD-DFT gradient, ASA, ECA, R-Raman, ABS, FL, XAS/XES, NRVS
   Peter Pinski           : DLPNO-MP2, DLPNO-MP2 Gradient
   Christoph Reimann      : Effective Core Potentials
   Marius Retegan         : Local ZFS, SOC
   Christoph Riplinger    : Optimizer, TS searches, QM/MM, DLPNO-CCSD(T), (RO)-DLPNO pert. Triples
   Tobias Risthaus        : Range-separated hybrids, TD-DFT gradient, RPA, STAB
   Michael Roemelt        : Original ROCIS implementation
   Masaaki Saitow         : Open-shell DLPNO-CCSD energy and density
   Barbara Sandhoefer     : DKH picture change effects
   Avijit Sen             : IP-ROCIS
   Kantharuban Sivalingam : CASSCF convergence, NEVPT2, FIC-MRCI
   Bernardo de Souza      : ESD, SOC TD-DFT
   Georgi Stoychev        : AutoAux, RI-MP2 NMR, DLPNO-MP2 response
   Willem Van den Heuvel  : Paramagnetic NMR
   Boris Wezisla          : Elementary symmetry handling
   Frank Wennmohs         : Technical directorship


 We gratefully acknowledge several colleagues who have allowed us to
 interface, adapt or use parts of their codes:
   Stefan Grimme, W. Hujo, H. Kruse, P. Pracht,  : VdW corrections, initial TS optimization,
                  C. Bannwarth, S. Ehlert          DFT functionals, gCP, sTDA/sTD-DF
   Ed Valeev, F. Pavosevic, A. Kumar             : LibInt (2-el integral package), F12 methods
   Garnet Chan, S. Sharma, J. Yang, R. Olivares  : DMRG
   Ulf Ekstrom                                   : XCFun DFT Library
   Mihaly Kallay                                 : mrcc  (arbitrary order and MRCC methods)
   Jiri Pittner, Ondrej Demel                    : Mk-CCSD
   Frank Weinhold                                : gennbo (NPA and NBO analysis)
   Christopher J. Cramer and Donald G. Truhlar   : smd solvation model
   Lars Goerigk                                  : TD-DFT with DH, B97 family of functionals
   V. Asgeirsson, H. Jonsson                     : NEB implementation
   FAccTs GmbH                                   : IRC, NEB, NEB-TS, DLPNO-Multilevel, CI-OPT
                                                   MM, QMMM, 2- and 3-layer-ONIOM, Crystal-QMMM,
                                                   LR-CPCM, SF, NACMEs, symmetry and pop. for TD-DFT,
                                                   nearIR, NL-DFT gradient (VV10), updates on ESD,
                                                   ML-optimized integration grids
   S Lehtola, MJT Oliveira, MAL Marques          : LibXC Library
   Liviu Ungur et al                             : ANISO software


 Your calculation uses the libint2 library for the computation of 2-el integrals
 For citations please refer to: http://libint.valeyev.net

 Your ORCA version has been built with support for libXC version: 5.1.0
 For citations please refer to: https://tddft.org/programs/libxc/

 This ORCA versions uses:
   CBLAS   interface :  Fast vector & matrix operations
   LAPACKE interface :  Fast linear algebra routines
   SCALAPACK package :  Parallel linear algebra routines
   Shared memory     :  Shared parallel matrices
   BLAS/LAPACK       :  OpenBLAS 0.3.15  USE64BITINT DYNAMIC_ARCH NO_AFFINITY Zen SINGLE_THREADED
        Core in use  :  Zen
   Copyright (c) 2011-2014, The OpenBLAS Project




***************************************
The coordinates will be read from file: opt.xyz
***************************************


XCFun DFT library Copyright 2009-2010 Ulf Ekstrom and contributors.
See http://admol.org/xcfun for more information.
This is free software; see the source code for copying conditions.
There is ABSOLUTELY NO WARRANTY; not even for MERCHANTABILITY or FITNESS FOR A PARTICULAR PURPOSE.
For details see the documentation.
Scientific users of this library should cite U. Ekstrom, L. Visscher, R. Bast, A. J. Thorvaldsen and K. Ruud;
J.Chem.Theor.Comp. 2010, DOI: 10.1021/ct100117s
XCFun Version 0.99 

================================================================================

----- Orbital basis set information -----
Your calculation utilizes the basis: def2-TZVP
   F. Weigend and R. Ahlrichs, Phys. Chem. Chem. Phys. 7, 3297 (2005).

----- AuxJ basis set information -----
Your calculation utilizes the auxiliary basis: def2/J
   F. Weigend, Phys. Chem. Chem. Phys. 8, 1057 (2006).

================================================================================
                                        WARNINGS
                       Please study these warnings very carefully!
================================================================================


WARNING: your system is open-shell and RHF/RKS was chosen
  ===> : WILL SWITCH to UHF/UKS


WARNING: Geometry Optimization
  ===> : Switching off AutoStart
         For restart on a previous wavefunction, please use MOREAD

WARNING: Minnesota functionals are quite sensitive to the integration grid.
         see SE Wheeler, KN Houk, JCTC 2010, 6, 395,
             N Mardirossian, M Head-Gordon, JCTC 2016, 12, 4303.
         DEFGRID3 seems to be a minimum grid for reliable results with these functionals!
  ===> : Please increase the integration grid!


INFO   : the flag for use of the SHARK integral package has been found!

================================================================================
                                       INPUT FILE
================================================================================
NAME = freq.inp
|  1> ! M062X def2-TZVP OPT FREQ
|  2> %pal nprocs 16 end
|  3> *XYZFile -1 2 opt.xyz
|  4> 
|  5>                          ****END OF INPUT****
================================================================================

                       *****************************
                       * Geometry Optimization Run *
                       *****************************

Geometry optimization settings:
Update method            Update   .... BFGS
Choice of coordinates    CoordSys .... Z-matrix Internals
Initial Hessian          InHess   .... Almoef's Model

Convergence Tolerances:
Energy Change            TolE     ....  5.0000e-06 Eh
Max. Gradient            TolMAXG  ....  3.0000e-04 Eh/bohr
RMS Gradient             TolRMSG  ....  1.0000e-04 Eh/bohr
Max. Displacement        TolMAXD  ....  4.0000e-03 bohr
RMS Displacement         TolRMSD  ....  2.0000e-03 bohr
Strict Convergence                ....  False
------------------------------------------------------------------------------
                        ORCA OPTIMIZATION COORDINATE SETUP
------------------------------------------------------------------------------

The optimization will be done in new redundant internal coordinates
Making redundant internal coordinates   ...  (new redundants) done
Evaluating the initial hessian          ...  (Almloef) done
Evaluating the coordinates              ...  done
Calculating the B-matrix                .... done
Calculating the G-matrix                .... done
Diagonalizing the G-matrix              .... done
Small eigenvalue found = 4.361e-03
Small eigenvalue found = 7.320e-03
Small eigenvalue found = 1.032e-02
Small eigenvalue found = 2.412e-02
The first mode is                       ....   67
The number of degrees of freedom        ....   90

    -----------------------------------------------------------------
                    Redundant Internal Coordinates


    -----------------------------------------------------------------
         Definition                    Initial Value    Approx d2E/dq
    -----------------------------------------------------------------
      1. B(C   1,N   0)                  1.4564         0.438441   
      2. B(C   2,C   1)                  1.5445         0.354250   
      3. B(O   3,C   2)                  1.2399         0.971377   
      4. B(C   4,C   1)                  1.5654         0.328060   
      5. B(C   5,C   4)                  1.5176         0.391040   
      6. B(C   6,C   5)                  1.3912         0.622020   
      7. B(C   7,C   6)                  1.4550         0.492148   
      8. B(C   8,C   7)                  1.5228         0.383608   
      9. B(C   9,C   8)                  1.4551         0.491903   
     10. B(C  10,C   9)                  1.3887         0.627881   
     11. B(C  10,C   5)                  1.4347         0.530158   
     12. B(H  11,N   0)                  1.0132         0.427663   
     13. B(H  12,C   1)                  1.0943         0.354503   
     14. B(H  13,C   4)                  1.0960         0.352302   
     15. B(H  14,C   4)                  1.0975         0.350364   
     16. B(H  15,C   6)                  1.0903         0.359730   
     17. B(O  16,C   7)                  1.2569         0.912395   
     18. B(O  17,C   8)                  1.2571         0.911661   
     19. B(H  18,C   9)                  1.0892         0.361145   
     20. B(H  19,C  10)                  1.0902         0.359884   
     21. B(C  20,N   0)                  1.3596         0.625697   
     22. B(N  21,C   2)                  1.3582         0.628843   
     23. B(H  22,N  21)                  1.0156         0.423841   
     24. B(O  23,C  20)                  1.2342         0.991957   
     25. B(C  24,N  21)                  1.4595         0.433505   
     26. B(H  25,C  24)                  1.0905         0.359413   
     27. B(H  26,C  24)                  1.0933         0.355770   
     28. B(H  27,C  24)                  1.0962         0.351976   
     29. B(C  28,C  20)                  1.5305         0.372839   
     30. B(H  29,C  28)                  1.0941         0.354775   
     31. B(H  30,C  28)                  1.0933         0.355722   
     32. B(H  31,C  28)                  1.0937         0.355276   
     33. A(C   1,N   0,H  11)          113.8321         0.337667   
     34. A(C   1,N   0,C  20)          124.0149         0.403460   
     35. A(H  11,N   0,C  20)          121.2533         0.358511   
     36. A(N   0,C   1,C   2)          106.2845         0.367764   
     37. A(N   0,C   1,C   4)          111.6450         0.362959   
     38. A(C   2,C   1,H  12)          109.6583         0.320684   
     39. A(C   2,C   1,C   4)          112.4264         0.352218   
     40. A(N   0,C   1,H  12)          108.5981         0.330139   
     41. A(C   4,C   1,H  12)          108.1613         0.316691   
     42. A(O   3,C   2,N  21)          123.9050         0.465923   
     43. A(C   1,C   2,O   3)          120.9296         0.422757   
     44. A(C   1,C   2,N  21)          115.1624         0.391474   
     45. A(C   5,C   4,H  14)          110.8775         0.325295   
     46. A(C   5,C   4,H  13)          110.2354         0.325590   
     47. A(C   1,C   4,H  14)          105.2346         0.316087   
     48. A(C   1,C   4,H  13)          108.1311         0.316370   
     49. A(C   1,C   4,C   5)          114.3893         0.358171   
     50. A(H  13,C   4,H  14)          107.6510         0.288600   
     51. A(C   6,C   5,C  10)          119.1291         0.422299   
     52. A(C   4,C   5,C  10)          119.6971         0.389060   
     53. A(C   4,C   5,C   6)          121.1336         0.400111   
     54. A(C   5,C   6,C   7)          123.6856         0.416734   
     55. A(C   7,C   6,H  15)          115.9044         0.339410   
     56. A(C   5,C   6,H  15)          120.4073         0.353042   
     57. A(C   8,C   7,O  16)          121.5004         0.424042   
     58. A(C   6,C   7,O  16)          121.7245         0.443479   
     59. A(C   6,C   7,C   8)          116.7717         0.382771   
     60. A(C   9,C   8,O  17)          121.9030         0.443374   
     61. A(C   7,C   8,O  17)          121.6575         0.423981   
     62. A(C   7,C   8,C   9)          116.4394         0.382738   
     63. A(C  10,C   9,H  18)          120.7945         0.353838   
     64. A(C   8,C   9,H  18)          116.1702         0.339605   
     65. A(C   8,C   9,C  10)          123.0296         0.417393   
     66. A(C   5,C  10,H  19)          119.1919         0.343687   
     67. A(C   5,C  10,C   9)          120.9405         0.423007   
     68. A(C   9,C  10,H  19)          119.8580         0.353629   
     69. A(O  23,C  20,C  28)          121.0031         0.428249   
     70. A(N   0,C  20,C  28)          115.3157         0.394648   
     71. A(N   0,C  20,O  23)          123.6758         0.467286   
     72. A(H  22,N  21,C  24)          117.1492         0.336527   
     73. A(C   2,N  21,C  24)          121.7922         0.403011   
     74. A(C   2,N  21,H  22)          115.9014         0.358270   
     75. A(H  26,C  24,H  27)          108.7946         0.289251   
     76. A(H  25,C  24,H  27)          109.1051         0.289713   
     77. A(N  21,C  24,H  27)          111.1334         0.329132   
     78. A(H  25,C  24,H  26)          109.6654         0.290201   
     79. A(N  21,C  24,H  26)          109.5179         0.329716   
     80. A(N  21,C  24,H  25)          108.6091         0.330271   
     81. A(H  30,C  28,H  31)          109.4937         0.289668   
     82. A(H  29,C  28,H  31)          109.0937         0.289547   
     83. A(C  20,C  28,H  31)          113.5635         0.323497   
     84. A(H  29,C  28,H  30)          107.6966         0.289604   
     85. A(C  20,C  28,H  30)          108.5282         0.323564   
     86. A(C  20,C  28,H  29)          108.2982         0.323422   
     87. D(C   2,C   1,N   0,H  11)     16.6383         0.016391   
     88. D(C   4,C   1,N   0,H  11)   -106.2852         0.016391   
     89. D(H  12,C   1,N   0,C  20)    -34.6804         0.016391   
     90. D(C   2,C   1,N   0,C  20)   -152.5902         0.016391   
     91. D(C   4,C   1,N   0,C  20)     84.4863         0.016391   
     92. D(H  12,C   1,N   0,H  11)    134.5481         0.016391   
     93. D(O   3,C   2,C   1,N   0)    -14.0124         0.009462   
     94. D(N  21,C   2,C   1,N   0)    165.3900         0.009462   
     95. D(N  21,C   2,C   1,H  12)     48.1848         0.009462   
     96. D(N  21,C   2,C   1,C   4)    -72.1796         0.009462   
     97. D(O   3,C   2,C   1,C   4)    108.4180         0.009462   
     98. D(O   3,C   2,C   1,H  12)   -131.2176         0.009462   
     99. D(C   5,C   4,C   1,H  12)    -58.9137         0.008775   
    100. D(C   5,C   4,C   1,C   2)     62.3111         0.008775   
    101. D(H  14,C   4,C   1,H  12)     63.0255         0.008775   
    102. D(H  14,C   4,C   1,C   2)   -175.7496         0.008775   
    103. D(H  14,C   4,C   1,N   0)    -56.3998         0.008775   
    104. D(H  13,C   4,C   1,H  12)    177.8513         0.008775   
    105. D(H  13,C   4,C   1,C   2)    -60.9239         0.008775   
    106. D(H  13,C   4,C   1,N   0)     58.4259         0.008775   
    107. D(C   5,C   4,C   1,N   0)   -178.3391         0.008775   
    108. D(C  10,C   5,C   4,H  14)    -55.8271         0.011373   
    109. D(C  10,C   5,C   4,H  13)   -174.9361         0.011373   
    110. D(C   6,C   5,C   4,H  14)    126.4979         0.011373   
    111. D(C   6,C   5,C   4,H  13)      7.3890         0.011373   
    112. D(C   6,C   5,C   4,C   1)   -114.7041         0.011373   
    113. D(C  10,C   5,C   4,C   1)     62.9709         0.011373   
    114. D(H  15,C   6,C   5,C  10)   -179.8264         0.026784   
    115. D(H  15,C   6,C   5,C   4)     -2.1384         0.026784   
    116. D(C   7,C   6,C   5,C  10)     -0.4547         0.026784   
    117. D(C   7,C   6,C   5,C   4)    177.2332         0.026784   
    118. D(O  16,C   7,C   6,H  15)     -0.0179         0.016493   
    119. D(O  16,C   7,C   6,C   5)   -179.4154         0.016493   
    120. D(C   8,C   7,C   6,H  15)    179.3256         0.016493   
    121. D(C   8,C   7,C   6,C   5)     -0.0720         0.016493   
    122. D(O  17,C   8,C   7,O  16)     -0.4440         0.010172   
    123. D(O  17,C   8,C   7,C   6)   -179.7891         0.010172   
    124. D(C   9,C   8,C   7,O  16)    179.6419         0.010172   
    125. D(C   9,C   8,C   7,C   6)      0.2969         0.010172   
    126. D(H  18,C   9,C   8,O  17)     -0.7713         0.016477   
    127. D(H  18,C   9,C   8,C   7)    179.1425         0.016477   
    128. D(C  10,C   9,C   8,O  17)   -179.9111         0.016477   
    129. D(C  10,C   9,C   8,C   7)      0.0027         0.016477   
    130. D(H  19,C  10,C   9,H  18)     -0.7867         0.027323   
    131. D(H  19,C  10,C   9,C   8)    178.3146         0.027323   
    132. D(C   5,C  10,C   9,H  18)   -179.6443         0.027323   
    133. D(C   5,C  10,C   9,C   8)     -0.5431         0.027323   
    134. D(H  19,C  10,C   5,C   6)   -178.0994         0.019185   
    135. D(H  19,C  10,C   5,C   4)      4.1789         0.019185   
    136. D(C   9,C  10,C   5,C   6)      0.7658         0.019185   
    137. D(C   9,C  10,C   5,C   4)   -176.9560         0.019185   
    138. D(C  28,C  20,N   0,H  11)      9.3057         0.031747   
    139. D(C  28,C  20,N   0,C   1)    177.7701         0.031747   
    140. D(O  23,C  20,N   0,H  11)   -171.5360         0.031747   
    141. D(O  23,C  20,N   0,C   1)     -3.0716         0.031747   
    142. D(C  24,N  21,C   2,O   3)    -12.0209         0.032093   
    143. D(C  24,N  21,C   2,C   1)    168.5967         0.032093   
    144. D(H  22,N  21,C   2,O   3)   -165.8916         0.032093   
    145. D(H  22,N  21,C   2,C   1)     14.7260         0.032093   
    146. D(H  26,C  24,N  21,H  22)    -56.8228         0.016022   
    147. D(H  26,C  24,N  21,C   2)    149.6141         0.016022   
    148. D(H  25,C  24,N  21,H  22)   -176.5649         0.016022   
    149. D(H  25,C  24,N  21,C   2)     29.8720         0.016022   
    150. D(H  27,C  24,N  21,H  22)     63.4078         0.016022   
    151. D(H  27,C  24,N  21,C   2)    -90.1553         0.016022   
    152. D(H  31,C  28,C  20,O  23)    176.5101         0.010399   
    153. D(H  31,C  28,C  20,N   0)     -4.3071         0.010399   
    154. D(H  30,C  28,C  20,O  23)     54.4960         0.010399   
    155. D(H  30,C  28,C  20,N   0)   -126.3211         0.010399   
    156. D(H  29,C  28,C  20,O  23)    -62.1510         0.010399   
    157. D(H  29,C  28,C  20,N   0)    117.0318         0.010399   
    -----------------------------------------------------------------

Number of atoms                         .... 32
Number of degrees of freedom            .... 157

         *************************************************************
         *                GEOMETRY OPTIMIZATION CYCLE   1            *
         *************************************************************
---------------------------------
CARTESIAN COORDINATES (ANGSTROEM)
---------------------------------
  N      0.875933   -0.810983   -3.730396
  C      1.931072    0.065864   -3.241550
  C      3.263441   -0.550786   -3.721017
  O      3.308604   -1.710853   -4.156333
  C      1.873314    0.226928   -1.685564
  C      2.922952    1.161443   -1.112904
  C      3.925203    0.688462   -0.271920
  C      4.991651    1.522419    0.261108
  C      4.982524    2.990121   -0.144654
  C      3.901242    3.413130   -1.021695
  C      2.916333    2.548284   -1.480358
  H      1.204100   -1.725232   -4.018515
  H      1.799855    1.054495   -3.691888
  H      1.966030   -0.768270   -1.235996
  H      0.862267    0.596042   -1.471182
  H      3.951849   -0.362133    0.018342
  O      5.885550    1.053661    1.010160
  O      5.862543    3.791849    0.259349
  H      3.890680    4.466795   -1.297484
  H      2.113898    2.926655   -2.113912
  C     -0.391078   -0.398734   -4.001080
  N      4.342622    0.269728   -3.637668
  H      4.224578    1.101399   -3.066787
  O     -0.792146    0.752368   -3.807989
  C      5.702892   -0.228468   -3.815442
  H      5.675321   -1.080581   -4.495425
  H      6.328483    0.561136   -4.240236
  H      6.135558   -0.546046   -2.859605
  C     -1.325437   -1.476420   -4.556154
  H     -2.141518   -1.624216   -3.842624
  H     -1.762082   -1.110605   -5.489369
  H     -0.829654   -2.434507   -4.736114

----------------------------
CARTESIAN COORDINATES (A.U.)
----------------------------
  NO LB      ZA    FRAG     MASS         X           Y           Z
   0 N     7.0000    0    14.007    1.655273   -1.532535   -7.049427
   1 C     6.0000    0    12.011    3.649198    0.124464   -6.125642
   2 C     6.0000    0    12.011    6.167009   -1.040835   -7.031703
   3 O     8.0000    0    15.999    6.252356   -3.233044   -7.854331
   4 C     6.0000    0    12.011    3.540051    0.428833   -3.185254
   5 C     6.0000    0    12.011    5.523579    2.194809   -2.103084
   6 C     6.0000    0    12.011    7.417559    1.301004   -0.513855
   7 C     6.0000    0    12.011    9.432853    2.876955    0.493423
   8 C     6.0000    0    12.011    9.415606    5.650510   -0.273356
   9 C     6.0000    0    12.011    7.372279    6.449881   -1.930724
  10 C     6.0000    0    12.011    5.511071    4.815559   -2.797471
  11 H     1.0000    0     1.008    2.275420   -3.260216   -7.593893
  12 H     1.0000    0     1.008    3.401232    1.992706   -6.976658
  13 H     1.0000    0     1.008    3.715258   -1.451821   -2.335695
  14 H     1.0000    0     1.008    1.629449    1.126356   -2.780132
  15 H     1.0000    0     1.008    7.467913   -0.684332    0.034661
  16 O     8.0000    0    15.999   11.122078    1.991131    1.908926
  17 O     8.0000    0    15.999   11.078602    7.165556    0.490098
  18 H     1.0000    0     1.008    7.352320    8.441020   -2.451889
  19 H     1.0000    0     1.008    3.994689    5.530576   -3.994714
  20 C     6.0000    0    12.011   -0.739030   -0.753498   -7.560945
  21 N     7.0000    0    14.007    8.206366    0.509712   -6.874197
  22 H     1.0000    0     1.008    7.983295    2.081343   -5.795388
  23 O     8.0000    0    15.999   -1.496939    1.421769   -7.196057
  24 C     6.0000    0    12.011   10.776904   -0.431743   -7.210140
  25 H     1.0000    0     1.008   10.724803   -2.042002   -8.495122
  26 H     1.0000    0     1.008   11.959100    1.060394   -8.012885
  27 H     1.0000    0     1.008   11.594525   -1.031877   -5.403871
  28 C     6.0000    0    12.011   -2.504713   -2.790029   -8.609883
  29 H     1.0000    0     1.008   -4.046883   -3.069323   -7.261507
  30 H     1.0000    0     1.008   -3.329853   -2.098739  -10.373403
  31 H     1.0000    0     1.008   -1.567819   -4.600551   -8.949958

--------------------------------
INTERNAL COORDINATES (ANGSTROEM)
--------------------------------
 N      0   0   0     0.000000000000     0.00000000     0.00000000
 C      1   0   0     1.456416971937     0.00000000     0.00000000
 C      2   1   0     1.544458311624   106.28452972     0.00000000
 O      3   2   1     1.239876631307   120.92963615   345.98764220
 C      2   1   3     1.565365795968   111.64499696   237.07654418
 C      5   2   1     1.517562515833   114.38932600   181.66094179
 C      6   5   2     1.391212512253   121.13355777   245.29594288
 C      7   6   5     1.454961885935   123.68557268   177.23322098
 C      8   7   6     1.522785713220   116.77170189   359.92803749
 C      9   8   7     1.455097753164   116.43944188     0.29687251
 C     10   9   8     1.388659408570   123.02962917     0.00000000
 H      1   2   3     1.013192160352   113.83207356    16.63830023
 H      2   1   3     1.094264078537   108.59814401   117.90983917
 H      5   2   1     1.095959848071   108.13108898    58.42587824
 H      5   2   1     1.097461018900   105.23457445   303.60015930
 H      7   6   5     1.090280177699   120.40725750   357.86157478
 O      8   7   6     1.256928344766   121.72451270   180.58456216
 O      9   8   7     1.257147245216   121.65752192   180.21094473
 H     10   9   8     1.089211281122   116.17024536   179.14250609
 H     11  10   9     1.090163513577   119.85795497   178.31456833
 C      1   2   3     1.359607990109   124.01492611   207.40976492
 N      3   2   1     1.358242608806   115.16244429   165.39002770
 H     22   3   2     1.015636134203   115.90137168    14.72604322
 O     21   1   2     1.234169675915   123.67577615   356.92837509
 C     22   3   2     1.459498973005   121.79219829   168.59671865
 H     25  22   3     1.090519728268   108.60908792    29.87204279
 H     25  22   3     1.093293280056   109.51787743   149.61407112
 H     25  22   3     1.096211139584   111.13342201   269.84469428
 C     21   1   2     1.530536351808   115.31570813   177.77007028
 H     29  21   1     1.094055296900   108.29822963   117.03178749
 H     29  21   1     1.093329645612   108.52821177   233.67885571
 H     29  21   1     1.093671338072   113.56351039   355.69286573

---------------------------
INTERNAL COORDINATES (A.U.)
---------------------------
 N      0   0   0     0.000000000000     0.00000000     0.00000000
 C      1   0   0     2.752229213757     0.00000000     0.00000000
 C      2   1   0     2.918603234228   106.28452972     0.00000000
 O      3   2   1     2.343027273020   120.92963615   345.98764220
 C      2   1   3     2.958112653788   111.64499696   237.07654418
 C      5   2   1     2.867777546028   114.38932600   181.66094179
 C      6   5   2     2.629010642242   121.13355777   245.29594288
 C      7   6   5     2.749479499711   123.68557268   177.23322098
 C      8   7   6     2.877647958634   116.77170189   359.92803749
 C      9   8   7     2.749736251564   116.43944188     0.29687251
 C     10   9   8     2.624185975491   123.02962917     0.00000000
 H      1   2   3     1.914655704102   113.83207356    16.63830023
 H      2   1   3     2.067859426622   108.59814401   117.90983917
 H      5   2   1     2.071063966627   108.13108898    58.42587824
 H      5   2   1     2.073900768375   105.23457445   303.60015930
 H      7   6   5     2.060330945094   120.40725750   357.86157478
 O      8   7   6     2.375250341570   121.72451270   180.58456216
 O      9   8   7     2.375664003473   121.65752192   180.21094473
 H     10   9   8     2.058311023299   116.17024536   179.14250609
 H     11  10   9     2.060110481854   119.85795497   178.31456833
 C      1   2   3     2.569286750798   124.01492611   207.40976492
 N      3   2   1     2.566706554066   115.16244429   165.39002770
 H     22   3   2     1.919274145358   115.90137168    14.72604322
 O     21   1   2     2.332242690270   123.67577615   356.92837509
 C     22   3   2     2.758053351719   121.79219829   168.59671865
 H     25  22   3     2.060783630065   108.60908792    29.87204279
 H     25  22   3     2.066024883363   109.51787743   149.61407112
 H     25  22   3     2.071538838767   111.13342201   269.84469428
 C     21   1   2     2.892294542928   115.31570813   177.77007028
 H     29  21   1     2.067464886506   108.29822963   117.03178749
 H     29  21   1     2.066093604304   108.52821177   233.67885571
 H     29  21   1     2.066739309475   113.56351039   355.69286573

---------------------
BASIS SET INFORMATION
---------------------
There are 4 groups of distinct atoms

 Group   1 Type N   : 11s6p2d1f contracted to 5s3p2d1f pattern {62111/411/11/1}
 Group   2 Type C   : 11s6p2d1f contracted to 5s3p2d1f pattern {62111/411/11/1}
 Group   3 Type O   : 11s6p2d1f contracted to 5s3p2d1f pattern {62111/411/11/1}
 Group   4 Type H   : 5s1p contracted to 3s1p pattern {311/1}

Atom   0N    basis set group =>   1
Atom   1C    basis set group =>   2
Atom   2C    basis set group =>   2
Atom   3O    basis set group =>   3
Atom   4C    basis set group =>   2
Atom   5C    basis set group =>   2
Atom   6C    basis set group =>   2
Atom   7C    basis set group =>   2
Atom   8C    basis set group =>   2
Atom   9C    basis set group =>   2
Atom  10C    basis set group =>   2
Atom  11H    basis set group =>   4
Atom  12H    basis set group =>   4
Atom  13H    basis set group =>   4
Atom  14H    basis set group =>   4
Atom  15H    basis set group =>   4
Atom  16O    basis set group =>   3
Atom  17O    basis set group =>   3
Atom  18H    basis set group =>   4
Atom  19H    basis set group =>   4
Atom  20C    basis set group =>   2
Atom  21N    basis set group =>   1
Atom  22H    basis set group =>   4
Atom  23O    basis set group =>   3
Atom  24C    basis set group =>   2
Atom  25H    basis set group =>   4
Atom  26H    basis set group =>   4
Atom  27H    basis set group =>   4
Atom  28C    basis set group =>   2
Atom  29H    basis set group =>   4
Atom  30H    basis set group =>   4
Atom  31H    basis set group =>   4
---------------------------------
AUXILIARY/J BASIS SET INFORMATION
---------------------------------
There are 4 groups of distinct atoms

 Group   1 Type N   : 12s5p4d2f1g contracted to 6s4p3d1f1g pattern {711111/2111/211/2/1}
 Group   2 Type C   : 12s5p4d2f1g contracted to 6s4p3d1f1g pattern {711111/2111/211/2/1}
 Group   3 Type O   : 12s5p4d2f1g contracted to 6s4p3d1f1g pattern {711111/2111/211/2/1}
 Group   4 Type H   : 5s2p1d contracted to 3s1p1d pattern {311/2/1}

Atom   0N    basis set group =>   1
Atom   1C    basis set group =>   2
Atom   2C    basis set group =>   2
Atom   3O    basis set group =>   3
Atom   4C    basis set group =>   2
Atom   5C    basis set group =>   2
Atom   6C    basis set group =>   2
Atom   7C    basis set group =>   2
Atom   8C    basis set group =>   2
Atom   9C    basis set group =>   2
Atom  10C    basis set group =>   2
Atom  11H    basis set group =>   4
Atom  12H    basis set group =>   4
Atom  13H    basis set group =>   4
Atom  14H    basis set group =>   4
Atom  15H    basis set group =>   4
Atom  16O    basis set group =>   3
Atom  17O    basis set group =>   3
Atom  18H    basis set group =>   4
Atom  19H    basis set group =>   4
Atom  20C    basis set group =>   2
Atom  21N    basis set group =>   1
Atom  22H    basis set group =>   4
Atom  23O    basis set group =>   3
Atom  24C    basis set group =>   2
Atom  25H    basis set group =>   4
Atom  26H    basis set group =>   4
Atom  27H    basis set group =>   4
Atom  28C    basis set group =>   2
Atom  29H    basis set group =>   4
Atom  30H    basis set group =>   4
Atom  31H    basis set group =>   4


           ************************************************************
           *        Program running with 16 parallel MPI-processes    *
           *              working on a common directory               *
           ************************************************************
------------------------------------------------------------------------------
                           ORCA GTO INTEGRAL CALCULATION
                           -- RI-GTO INTEGRALS CHOSEN --
------------------------------------------------------------------------------
------------------------------------------------------------------------------
                   ___                                                        
                  /   \      - P O W E R E D   B Y -                         
                 /     \                                                     
                 |  |  |   _    _      __       _____    __    __             
                 |  |  |  | |  | |    /  \     |  _  \  |  |  /  |          
                  \  \/   | |  | |   /    \    | | | |  |  | /  /          
                 / \  \   | |__| |  /  /\  \   | |_| |  |  |/  /          
                |  |  |   |  __  | /  /__\  \  |    /   |      \           
                |  |  |   | |  | | |   __   |  |    \   |  |\   \          
                \     /   | |  | | |  |  |  |  | |\  \  |  | \   \       
                 \___/    |_|  |_| |__|  |__|  |_| \__\ |__|  \__/        
                                                                              
                      - O R C A' S   B I G   F R I E N D -                    
                                      &                                       
                       - I N T E G R A L  F E E D E R -                       
                                                                              
 v1 FN, 2020, v2 2021                                                         
------------------------------------------------------------------------------


Reading SHARK input file freq.SHARKINP.tmp ... ok
----------------------
SHARK INTEGRAL PACKAGE
----------------------

Number of atoms                             ...     32
Number of basis functions                   ...    642
Number of shells                            ...    254
Maximum angular momentum                    ...      3
Integral batch strategy                     ... SHARK/LIBINT Hybrid
RI-J (if used) integral strategy            ... SPLIT-RIJ (Revised 2003 algorithm where possible)
Printlevel                                  ...      1
Contraction scheme used                     ... SEGMENTED contraction
Coulomb Range Separation                    ... NOT USED
Exchange Range Separation                   ... NOT USED
Finite Nucleus Model                        ... NOT USED
Auxiliary Coulomb fitting basis             ... AVAILABLE
   # of basis functions in Aux-J            ...   1036
   # of shells in Aux-J                     ...    340
   Maximum angular momentum in Aux-J        ...      4
Auxiliary J/K fitting basis                 ... NOT available
Auxiliary Correlation fitting basis         ... NOT available
Auxiliary 'external' fitting basis          ... NOT available
Integral threshold                          ...     2.500000e-11
Primitive cut-off                           ...     2.500000e-12
Primitive pair pre-selection threshold      ...     2.500000e-12

Calculating pre-screening integrals         ... done (  0.0 sec) Dimension = 254
Organizing shell pair data                  ... done (  0.1 sec)
Shell pair information
Total number of shell pairs                 ...     32385
Shell pairs after pre-screening             ...     23921
Total number of primitive shell pairs       ...     99228
Primitive shell pairs kept                  ...     49733
          la=0 lb=0:   6299 shell pairs
          la=1 lb=0:   6905 shell pairs
          la=1 lb=1:   1911 shell pairs
          la=2 lb=0:   3390 shell pairs
          la=2 lb=1:   1877 shell pairs
          la=2 lb=2:    481 shell pairs
          la=3 lb=0:   1598 shell pairs
          la=3 lb=1:    907 shell pairs
          la=3 lb=2:    438 shell pairs
          la=3 lb=3:    115 shell pairs

Calculating one electron integrals          ... done (  0.0 sec)
Calculating RI/J V-Matrix + Cholesky decomp.... done (  0.1 sec)
Calculating Nuclear repulsion               ... done (  0.0 sec) ENN=   1293.145012675984 Eh

SHARK setup successfully completed in   0.5 seconds

Maximum memory used throughout the entire GTOINT-calculation: 37.9 MB


           ************************************************************
           *        Program running with 16 parallel MPI-processes    *
           *              working on a common directory               *
           ************************************************************
-------------------------------------------------------------------------------
                                 ORCA SCF
-------------------------------------------------------------------------------

------------
SCF SETTINGS
------------
Hamiltonian:
 Density Functional     Method          .... DFT(GTOs)
 Exchange Functional    Exchange        .... M062X
 Correlation Functional Correlation     .... M062X
 Gradients option       PostSCFGGA      .... off
 Hybrid DFT is turned on
   Fraction HF Exchange ScalHFX         ....  0.540000
   Scaling of DF-GGA-X  ScalDFX         ....  0.460000
   Scaling of DF-GGA-C  ScalDFC         ....  1.000000
   Scaling of DF-LDA-C  ScalLDAC        ....  1.000000
   Perturbative correction              ....  0.000000
   Density functional embedding theory  .... OFF
 RI-approximation to the Coulomb term is turned on
   Number of AuxJ basis functions       .... 1036
   RIJ-COSX (HFX calculated with COS-X)).... on


General Settings:
 Integral files         IntName         .... freq
 Hartree-Fock type      HFTyp           .... UHF
 Total Charge           Charge          ....   -1
 Multiplicity           Mult            ....    2
 Number of Electrons    NEL             ....  133
 Basis Dimension        Dim             ....  642
 Nuclear Repulsion      ENuc            ....   1293.1450126760 Eh

Convergence Acceleration:
 DIIS                   CNVDIIS         .... on
   Start iteration      DIISMaxIt       ....    12
   Startup error        DIISStart       ....  0.200000
   # of expansion vecs  DIISMaxEq       ....     5
   Bias factor          DIISBfac        ....   1.050
   Max. coefficient     DIISMaxC        ....  10.000
 Trust-Rad. Augm. Hess. CNVTRAH         .... auto
   Auto Start mean grad. ratio tolernc. ....  1.125000
   Auto Start start iteration           ....    20
   Auto Start num. interpolation iter.  ....    10
   Max. Number of Micro iterations      ....    16
   Max. Number of Macro iterations      .... Maxiter - #DIIS iter
   Number of Davidson start vectors     ....     2
   Converg. threshold I  (grad. norm)   ....   1.000e-05
   Converg. threshold II (energy diff.) ....   1.000e-08
   Grad. Scal. Fac. for Micro threshold ....   0.100
   Minimum threshold for Micro iter.    ....   0.010
   NR start threshold (gradient norm)   ....   0.001
   Initial trust radius                 ....   0.400
   Minimum AH scaling param. (alpha)    ....   1.000
   Maximum AH scaling param. (alpha)    .... 1000.000
   Orbital update algorithm             .... Taylor
   White noise on init. David. guess    .... on
   Maximum white noise                  ....   0.010
   Quad. conv. algorithm                .... NR
 SOSCF                  CNVSOSCF        .... off
 Level Shifting         CNVShift        .... on
   Level shift para.    LevelShift      ....    0.2500
   Turn off err/grad.   ShiftErr        ....    0.0010
 Zerner damping         CNVZerner       .... off
 Static damping         CNVDamp         .... on
   Fraction old density DampFac         ....    0.7000
   Max. Damping (<1)    DampMax         ....    0.9800
   Min. Damping (>=0)   DampMin         ....    0.0000
   Turn off err/grad.   DampErr         ....    0.1000
 Fernandez-Rico         CNVRico         .... off

SCF Procedure:
 Maximum # iterations   MaxIter         ....   125
 SCF integral mode      SCFMode         .... Direct
   Integral package                     .... SHARK and LIBINT hybrid scheme
 Reset frequency        DirectResetFreq ....    20
 Integral Threshold     Thresh          ....  2.500e-11 Eh
 Primitive CutOff       TCut            ....  2.500e-12 Eh

Convergence Tolerance:
 Convergence Check Mode ConvCheckMode   .... Total+1el-Energy
 Convergence forced     ConvForced      .... 0
 Energy Change          TolE            ....  1.000e-08 Eh
 1-El. energy change                    ....  1.000e-05 Eh
 DIIS Error             TolErr          ....  5.000e-07


Diagonalization of the overlap matrix:
Smallest eigenvalue                        ... 1.181e-05
Time for diagonalization                   ...    0.053 sec
Threshold for overlap eigenvalues          ... 1.000e-08
Number of eigenvalues below threshold      ... 0
Time for construction of square roots      ...    0.034 sec
Total time needed                          ...    0.089 sec

Time for model grid setup =    0.134 sec

------------------------------
INITIAL GUESS: MODEL POTENTIAL
------------------------------
Loading Hartree-Fock densities                     ... done
Calculating cut-offs                               ... done
Initializing the effective Hamiltonian             ... done
Setting up the integral package (SHARK)            ... done
Starting the Coulomb interaction                   ... done (   0.1 sec)
Reading the grid                                   ... done
Mapping shells                                     ... done
Starting the XC term evaluation                    ... done (   0.1 sec)
  promolecular density results
     # of electrons  =    131.998171185
     EX              =   -111.099165620
     EC              =     -4.421502715
     EX+EC           =   -115.520668335
Transforming the Hamiltonian                       ... done (   0.0 sec)
Diagonalizing the Hamiltonian                      ... done (   0.1 sec)
Back transforming the eigenvectors                 ... done (   0.0 sec)
Now organizing SCF variables                       ... done
                      ------------------
                      INITIAL GUESS DONE (   0.5 sec)
                      ------------------
-------------------
DFT GRID GENERATION
-------------------

General Integration Accuracy     IntAcc      ... 4.388
Radial Grid Type                 RadialGrid  ... OptM3 with GC (2021)
Angular Grid (max. ang.)         AngularGrid ... 4 (Lebedev-302)
Angular grid pruning method      GridPruning ... 4 (adaptive)
Weight generation scheme         WeightScheme... Becke
Basis function cutoff            BFCut       ... 1.0000e-11
Integration weight cutoff        WCut        ... 1.0000e-14
Angular grids for H and He will be reduced by one unit
Partially contracted basis set               ... off
Rotationally invariant grid construction     ... off

Total number of grid points                  ...   152642
Total number of batches                      ...     2400
Average number of points per batch           ...       63
Average number of grid points per atom       ...     4770
Time for grid setup =    0.686 sec

--------------------
COSX GRID GENERATION
--------------------

GRIDX 1
-------
General Integration Accuracy     IntAcc      ... 3.816
Radial Grid Type                 RadialGrid  ... OptM3 with GC (2021)
Angular Grid (max. ang.)         AngularGrid ... 1 (Lebedev-50)
Angular grid pruning method      GridPruning ... 4 (adaptive)
Weight generation scheme         WeightScheme... Becke
Basis function cutoff            BFCut       ... 1.0000e-11
Integration weight cutoff        WCut        ... 1.0000e-14
Angular grids for H and He will be reduced by one unit
Partially contracted basis set               ... on
Rotationally invariant grid construction     ... off

Total number of grid points                  ...    19409
Total number of batches                      ...      322
Average number of points per batch           ...       60
Average number of grid points per atom       ...      607
UseSFitting                                  ... on

GRIDX 2
-------
General Integration Accuracy     IntAcc      ... 4.020
Radial Grid Type                 RadialGrid  ... OptM3 with GC (2021)
Angular Grid (max. ang.)         AngularGrid ... 2 (Lebedev-110)
Angular grid pruning method      GridPruning ... 4 (adaptive)
Weight generation scheme         WeightScheme... Becke
Basis function cutoff            BFCut       ... 1.0000e-11
Integration weight cutoff        WCut        ... 1.0000e-14
Angular grids for H and He will be reduced by one unit
Partially contracted basis set               ... on
Rotationally invariant grid construction     ... off

Total number of grid points                  ...    42291
Total number of batches                      ...      676
Average number of points per batch           ...       62
Average number of grid points per atom       ...     1322
UseSFitting                                  ... on

GRIDX 3
-------
General Integration Accuracy     IntAcc      ... 4.338
Radial Grid Type                 RadialGrid  ... OptM3 with GC (2021)
Angular Grid (max. ang.)         AngularGrid ... 3 (Lebedev-194)
Angular grid pruning method      GridPruning ... 4 (adaptive)
Weight generation scheme         WeightScheme... Becke
Basis function cutoff            BFCut       ... 1.0000e-11
Integration weight cutoff        WCut        ... 1.0000e-14
Angular grids for H and He will be reduced by one unit
Partially contracted basis set               ... on
Rotationally invariant grid construction     ... off

Total number of grid points                  ...    92525
Total number of batches                      ...     1463
Average number of points per batch           ...       63
Average number of grid points per atom       ...     2891
UseSFitting                                  ... on

Time for X-Grid setup             =    0.901 sec

--------------
SCF ITERATIONS
--------------
ITER       Energy         Delta-E        Max-DP      RMS-DP      [F,P]     Damp
               ***  Starting incremental Fock matrix formation  ***
  0   -875.5243086491   0.000000000000 0.13104882  0.00085160  0.1518520 0.7000
  1   -875.8073758616  -0.283067212502 0.13147577  0.00077411  0.0722615 0.7000
                               ***Turning on DIIS***
  2   -875.9320076196  -0.124631757946 0.18956904  0.00120881  0.0265030 0.0000
  3   -876.1372294846  -0.205221864990 0.13712962  0.00073797  0.0383129 0.0000
  4   -876.1715889888  -0.034359504200 0.03554867  0.00019153  0.0086075 0.0000
  5   -876.1736132370  -0.002024248216 0.01770314  0.00009734  0.0034525 0.0000
  6   -876.1739520044  -0.000338767459 0.00761232  0.00004088  0.0017180 0.0000
  7   -876.1740841327  -0.000132128266 0.00549731  0.00002767  0.0011259 0.0000
  8   -876.1741619606  -0.000077827878 0.00500133  0.00002492  0.0007790 0.0000
               *** Restarting incremental Fock matrix formation ***
                                   *** Resetting DIIS ***
  9   -876.1743042418  -0.000142281246 0.00339736  0.00003205  0.0004180 0.0000
 10   -876.1743073611  -0.000003119261 0.00081163  0.00000441  0.0005041 0.0000
 11   -876.1743112204  -0.000003859289 0.00083743  0.00000338  0.0001888 0.0000
 12   -876.1743127993  -0.000001578893 0.00039611  0.00000208  0.0000713 0.0000
 13   -876.1743133009  -0.000000501623 0.00018384  0.00000097  0.0000437 0.0000
 14   -876.1743133564  -0.000000055487 0.00004408  0.00000023  0.0000159 0.0000
 15   -876.1743133509   0.000000005470 0.00002949  0.00000013  0.0000070 0.0000
 16   -876.1743133249   0.000000025982 0.00001473  0.00000009  0.0000026 0.0000
 17   -876.1743133245   0.000000000443 0.00002299  0.00000012  0.0000014 0.0000
 18   -876.1743133056   0.000000018904 0.00001718  0.00000010  0.0000012 0.0000
                            ***DIIS convergence achieved***

               *****************************************************
               *                     SUCCESS                       *
               *           SCF CONVERGED AFTER  19 CYCLES          *
               *****************************************************

Old exchange energy                            =    -61.271407414 Eh
New exchange energy                            =    -61.271407519 Eh
Exchange energy change after final integration =     -0.000000105 Eh
Total energy after final integration           =   -876.174313416 Eh
Final COS-X integration done in                =     6.993 sec

----------------
TOTAL SCF ENERGY
----------------

Total Energy       :         -876.17431342 Eh          -23841.91517 eV

Components:
Nuclear Repulsion  :         1293.14501268 Eh           35188.26473 eV
Electronic Energy  :        -2169.31932609 Eh          -59030.17990 eV
One Electron Energy:        -3778.32696776 Eh         -102813.50373 eV
Two Electron Energy:         1609.00764167 Eh           43783.32383 eV
Max COSX asymmetry :            0.00000139 Eh               0.00004 eV

Virial components:
Potential Energy   :        -1747.65069666 Eh          -47555.99316 eV
Kinetic Energy     :          871.47638324 Eh           23714.07799 eV
Virial Ratio       :            2.00539077


DFT components:
N(Alpha)           :       66.999954085348 electrons
N(Beta)            :       65.999967469637 electrons
N(Total)           :      132.999921554985 electrons
E(XC)              :      -57.161139411931 Eh       
DFET-embed. en.    :        0.000000000000 Eh       

---------------
SCF CONVERGENCE
---------------

  Last Energy change         ...   -5.7062e-09  Tolerance :   1.0000e-08
  Last MAX-Density change    ...    0.0000e+00  Tolerance :   1.0000e-07
  Last RMS-Density change    ...    0.0000e+00  Tolerance :   5.0000e-09
  Last DIIS Error            ...    8.0750e-07  Tolerance :   5.0000e-07

             **** THE GBW FILE WAS UPDATED (freq.gbw) ****
             **** DENSITY freq.scfp WAS UPDATED ****
             **** ENERGY FILE WAS UPDATED (freq.en.tmp) ****
----------------------
UHF SPIN CONTAMINATION
----------------------

Warning: in a DFT calculation there is little theoretical justification to 
         calculate <S**2> as in Hartree-Fock theory. We will do it anyways
         but you should keep in mind that the values have only limited relevance

Expectation value of <S**2>     :     0.774672
Ideal value S*(S+1) for S=0.5   :     0.750000
Deviation                       :     0.024672

             **** THE GBW FILE WAS UPDATED (freq.gbw) ****
             **** DENSITY freq.scfp WAS UPDATED ****
----------------
ORBITAL ENERGIES
----------------
                 SPIN UP ORBITALS
  NO   OCC          E(Eh)            E(eV) 
   0   1.0000     -19.512290      -530.9564 
   1   1.0000     -19.505452      -530.7703 
   2   1.0000     -19.441137      -529.0202 
   3   1.0000     -19.440300      -528.9975 
   4   1.0000     -14.685263      -399.6063 
   5   1.0000     -14.681558      -399.5055 
   6   1.0000     -10.563535      -287.4484 
   7   1.0000     -10.559728      -287.3448 
   8   1.0000     -10.499596      -285.7085 
   9   1.0000     -10.478685      -285.1395 
  10   1.0000     -10.469822      -284.8983 
  11   1.0000     -10.452710      -284.4327 
  12   1.0000     -10.451793      -284.4077 
  13   1.0000     -10.446206      -284.2557 
  14   1.0000     -10.427672      -283.7514 
  15   1.0000     -10.416818      -283.4560 
  16   1.0000     -10.404788      -283.1287 
  17   1.0000     -10.401908      -283.0503 
  18   1.0000      -1.073680       -29.2163 
  19   1.0000      -1.064391       -28.9635 
  20   1.0000      -0.987641       -26.8751 
  21   1.0000      -0.961193       -26.1554 
  22   1.0000      -0.945492       -25.7281 
  23   1.0000      -0.940051       -25.5801 
  24   1.0000      -0.819139       -22.2899 
  25   1.0000      -0.780855       -21.2481 
  26   1.0000      -0.743428       -20.2297 
  27   1.0000      -0.715858       -19.4795 
  28   1.0000      -0.689572       -18.7642 
  29   1.0000      -0.662878       -18.0378 
  30   1.0000      -0.618088       -16.8190 
  31   1.0000      -0.583169       -15.8688 
  32   1.0000      -0.566721       -15.4213 
  33   1.0000      -0.539610       -14.6835 
  34   1.0000      -0.526995       -14.3403 
  35   1.0000      -0.505354       -13.7514 
  36   1.0000      -0.475303       -12.9337 
  37   1.0000      -0.464946       -12.6518 
  38   1.0000      -0.450374       -12.2553 
  39   1.0000      -0.439285       -11.9536 
  40   1.0000      -0.435835       -11.8597 
  41   1.0000      -0.423808       -11.5324 
  42   1.0000      -0.418619       -11.3912 
  43   1.0000      -0.402488       -10.9522 
  44   1.0000      -0.396809       -10.7977 
  45   1.0000      -0.389595       -10.6014 
  46   1.0000      -0.380723       -10.3600 
  47   1.0000      -0.376175       -10.2362 
  48   1.0000      -0.369040       -10.0421 
  49   1.0000      -0.359743        -9.7891 
  50   1.0000      -0.354833        -9.6555 
  51   1.0000      -0.344223        -9.3668 
  52   1.0000      -0.341048        -9.2804 
  53   1.0000      -0.336780        -9.1642 
  54   1.0000      -0.325675        -8.8621 
  55   1.0000      -0.304353        -8.2819 
  56   1.0000      -0.285766        -7.7761 
  57   1.0000      -0.280939        -7.6447 
  58   1.0000      -0.259737        -7.0678 
  59   1.0000      -0.255738        -6.9590 
  60   1.0000      -0.247565        -6.7366 
  61   1.0000      -0.234742        -6.3877 
  62   1.0000      -0.227539        -6.1916 
  63   1.0000      -0.195842        -5.3291 
  64   1.0000      -0.155988        -4.2446 
  65   1.0000      -0.149117        -4.0577 
  66   1.0000      -0.076692        -2.0869 
  67   0.0000       0.134774         3.6674 
  68   0.0000       0.142382         3.8744 
  69   0.0000       0.146369         3.9829 
  70   0.0000       0.164596         4.4789 
  71   0.0000       0.167145         4.5483 
  72   0.0000       0.172427         4.6920 
  73   0.0000       0.185545         5.0489 
  74   0.0000       0.192872         5.2483 
  75   0.0000       0.200671         5.4605 
  76   0.0000       0.210065         5.7162 
  77   0.0000       0.216864         5.9012 
  78   0.0000       0.225232         6.1289 
  79   0.0000       0.229138         6.2352 
  80   0.0000       0.231496         6.2993 
  81   0.0000       0.234611         6.3841 
  82   0.0000       0.244679         6.6580 
  83   0.0000       0.254466         6.9244 
  84   0.0000       0.260117         7.0781 
  85   0.0000       0.276054         7.5118 
  86   0.0000       0.280957         7.6452 
  87   0.0000       0.284658         7.7459 
  88   0.0000       0.289989         7.8910 
  89   0.0000       0.303542         8.2598 
  90   0.0000       0.305845         8.3225 
  91   0.0000       0.312182         8.4949 
  92   0.0000       0.321884         8.7589 
  93   0.0000       0.324092         8.8190 
  94   0.0000       0.330337         8.9889 
  95   0.0000       0.336614         9.1597 
  96   0.0000       0.339483         9.2378 
  97   0.0000       0.349159         9.5011 
  98   0.0000       0.355905         9.6847 
  99   0.0000       0.362586         9.8665 
 100   0.0000       0.365731         9.9521 
 101   0.0000       0.373319        10.1585 
 102   0.0000       0.380123        10.3437 
 103   0.0000       0.389993        10.6122 
 104   0.0000       0.403625        10.9832 
 105   0.0000       0.405900        11.0451 
 106   0.0000       0.411932        11.2092 
 107   0.0000       0.429820        11.6960 
 108   0.0000       0.434530        11.8242 
 109   0.0000       0.443061        12.0563 
 110   0.0000       0.445190        12.1142 
 111   0.0000       0.452500        12.3131 
 112   0.0000       0.457706        12.4548 
 113   0.0000       0.463722        12.6185 
 114   0.0000       0.469994        12.7892 
 115   0.0000       0.474248        12.9050 
 116   0.0000       0.483207        13.1487 
 117   0.0000       0.489614        13.3231 
 118   0.0000       0.491353        13.3704 
 119   0.0000       0.499451        13.5907 
 120   0.0000       0.500745        13.6260 
 121   0.0000       0.509699        13.8696 
 122   0.0000       0.512114        13.9353 
 123   0.0000       0.519739        14.1428 
 124   0.0000       0.523855        14.2548 
 125   0.0000       0.526496        14.3267 
 126   0.0000       0.531862        14.4727 
 127   0.0000       0.533573        14.5193 
 128   0.0000       0.540492        14.7075 
 129   0.0000       0.545252        14.8370 
 130   0.0000       0.549136        14.9427 
 131   0.0000       0.553827        15.0704 
 132   0.0000       0.558930        15.2093 
 133   0.0000       0.563194        15.3253 
 134   0.0000       0.576103        15.6766 
 135   0.0000       0.578896        15.7526 
 136   0.0000       0.583251        15.8711 
 137   0.0000       0.585477        15.9316 
 138   0.0000       0.589496        16.0410 
 139   0.0000       0.594450        16.1758 
 140   0.0000       0.599361        16.3094 
 141   0.0000       0.605129        16.4664 
 142   0.0000       0.607735        16.5373 
 143   0.0000       0.612443        16.6654 
 144   0.0000       0.625980        17.0338 
 145   0.0000       0.632489        17.2109 
 146   0.0000       0.635590        17.2953 
 147   0.0000       0.638737        17.3809 
 148   0.0000       0.648436        17.6448 
 149   0.0000       0.649667        17.6783 
 150   0.0000       0.658682        17.9236 
 151   0.0000       0.660928        17.9848 
 152   0.0000       0.670632        18.2488 
 153   0.0000       0.672717        18.3056 
 154   0.0000       0.679121        18.4798 
 155   0.0000       0.687894        18.7185 
 156   0.0000       0.689598        18.7649 
 157   0.0000       0.696727        18.9589 
 158   0.0000       0.706377        19.2215 
 159   0.0000       0.711020        19.3478 
 160   0.0000       0.715219        19.4621 
 161   0.0000       0.722813        19.6687 
 162   0.0000       0.727689        19.8014 
 163   0.0000       0.734779        19.9943 
 164   0.0000       0.751131        20.4393 
 165   0.0000       0.755841        20.5675 
 166   0.0000       0.763982        20.7890 
 167   0.0000       0.768602        20.9147 
 168   0.0000       0.777075        21.1453 
 169   0.0000       0.793139        21.5824 
 170   0.0000       0.801741        21.8165 
 171   0.0000       0.803348        21.8602 
 172   0.0000       0.808082        21.9890 
 173   0.0000       0.823751        22.4154 
 174   0.0000       0.834217        22.7002 
 175   0.0000       0.837918        22.8009 
 176   0.0000       0.850094        23.1322 
 177   0.0000       0.864653        23.5284 
 178   0.0000       0.867375        23.6025 
 179   0.0000       0.878174        23.8963 
 180   0.0000       0.882947        24.0262 
 181   0.0000       0.892193        24.2778 
 182   0.0000       0.909789        24.7566 
 183   0.0000       0.913897        24.8684 
 184   0.0000       0.921529        25.0761 
 185   0.0000       0.935879        25.4666 
 186   0.0000       0.946963        25.7682 
 187   0.0000       0.952160        25.9096 
 188   0.0000       0.964234        26.2381 
 189   0.0000       0.965823        26.2814 
 190   0.0000       0.982284        26.7293 
 191   0.0000       0.992676        27.0121 
 192   0.0000       0.994352        27.0577 
 193   0.0000       1.009060        27.4579 
 194   0.0000       1.016245        27.6534 
 195   0.0000       1.022333        27.8191 
 196   0.0000       1.025099        27.8944 
 197   0.0000       1.030771        28.0487 
 198   0.0000       1.036427        28.2026 
 199   0.0000       1.043086        28.3838 
 200   0.0000       1.051404        28.6102 
 201   0.0000       1.059364        28.8268 
 202   0.0000       1.067421        29.0460 
 203   0.0000       1.081953        29.4414 
 204   0.0000       1.092216        29.7207 
 205   0.0000       1.093424        29.7536 
 206   0.0000       1.100824        29.9549 
 207   0.0000       1.109178        30.1823 
 208   0.0000       1.118897        30.4467 
 209   0.0000       1.128151        30.6985 
 210   0.0000       1.134369        30.8678 
 211   0.0000       1.156599        31.4727 
 212   0.0000       1.165138        31.7050 
 213   0.0000       1.168501        31.7965 
 214   0.0000       1.186276        32.2802 
 215   0.0000       1.209338        32.9078 
 216   0.0000       1.220373        33.2080 
 217   0.0000       1.228872        33.4393 
 218   0.0000       1.237051        33.6619 
 219   0.0000       1.242419        33.8079 
 220   0.0000       1.257315        34.2133 
 221   0.0000       1.260428        34.2980 
 222   0.0000       1.274597        34.6835 
 223   0.0000       1.278857        34.7995 
 224   0.0000       1.300680        35.3933 
 225   0.0000       1.310449        35.6591 
 226   0.0000       1.320472        35.9319 
 227   0.0000       1.341320        36.4992 
 228   0.0000       1.360062        37.0092 
 229   0.0000       1.374195        37.3937 
 230   0.0000       1.383303        37.6416 
 231   0.0000       1.385741        37.7079 
 232   0.0000       1.402343        38.1597 
 233   0.0000       1.415726        38.5239 
 234   0.0000       1.429057        38.8866 
 235   0.0000       1.437677        39.1212 
 236   0.0000       1.449475        39.4422 
 237   0.0000       1.452678        39.5294 
 238   0.0000       1.461428        39.7675 
 239   0.0000       1.481898        40.3245 
 240   0.0000       1.490617        40.5618 
 241   0.0000       1.495045        40.6822 
 242   0.0000       1.515397        41.2361 
 243   0.0000       1.525372        41.5075 
 244   0.0000       1.536926        41.8219 
 245   0.0000       1.537591        41.8400 
 246   0.0000       1.552825        42.2545 
 247   0.0000       1.560570        42.4653 
 248   0.0000       1.577239        42.9189 
 249   0.0000       1.592032        43.3214 
 250   0.0000       1.597166        43.4611 
 251   0.0000       1.603926        43.6451 
 252   0.0000       1.617893        44.0251 
 253   0.0000       1.626287        44.2535 
 254   0.0000       1.628972        44.3266 
 255   0.0000       1.642888        44.7053 
 256   0.0000       1.647210        44.8229 
 257   0.0000       1.655409        45.0460 
 258   0.0000       1.658420        45.1279 
 259   0.0000       1.662331        45.2343 
 260   0.0000       1.668690        45.4074 
 261   0.0000       1.674303        45.5601 
 262   0.0000       1.682615        45.7863 
 263   0.0000       1.687913        45.9304 
 264   0.0000       1.691652        46.0322 
 265   0.0000       1.697189        46.1829 
 266   0.0000       1.708706        46.4963 
 267   0.0000       1.721397        46.8416 
 268   0.0000       1.730385        47.0862 
 269   0.0000       1.736444        47.2510 
 270   0.0000       1.746028        47.5118 
 271   0.0000       1.751846        47.6702 
 272   0.0000       1.763781        47.9949 
 273   0.0000       1.766053        48.0568 
 274   0.0000       1.777668        48.3728 
 275   0.0000       1.783336        48.5270 
 276   0.0000       1.791332        48.7446 
 277   0.0000       1.806393        49.1544 
 278   0.0000       1.824212        49.6393 
 279   0.0000       1.828452        49.7547 
 280   0.0000       1.830404        49.8078 
 281   0.0000       1.845321        50.2137 
 282   0.0000       1.855079        50.4793 
 283   0.0000       1.872025        50.9404 
 284   0.0000       1.879180        51.1351 
 285   0.0000       1.898916        51.6721 
 286   0.0000       1.904972        51.8369 
 287   0.0000       1.918712        52.2108 
 288   0.0000       1.922570        52.3158 
 289   0.0000       1.933281        52.6072 
 290   0.0000       1.946237        52.9598 
 291   0.0000       1.955638        53.2156 
 292   0.0000       1.971967        53.6600 
 293   0.0000       1.974342        53.7246 
 294   0.0000       1.982053        53.9344 
 295   0.0000       1.987669        54.0872 
 296   0.0000       2.000595        54.4390 
 297   0.0000       2.009528        54.6820 
 298   0.0000       2.019671        54.9580 
 299   0.0000       2.032618        55.3104 
 300   0.0000       2.049636        55.7734 
 301   0.0000       2.053049        55.8663 
 302   0.0000       2.083219        56.6873 
 303   0.0000       2.088251        56.8242 
 304   0.0000       2.091680        56.9175 
 305   0.0000       2.095523        57.0221 
 306   0.0000       2.101790        57.1926 
 307   0.0000       2.118031        57.6346 
 308   0.0000       2.130207        57.9659 
 309   0.0000       2.137030        58.1515 
 310   0.0000       2.148766        58.4709 
 311   0.0000       2.160588        58.7926 
 312   0.0000       2.171448        59.0881 
 313   0.0000       2.187145        59.5152 
 314   0.0000       2.193605        59.6910 
 315   0.0000       2.200657        59.8829 
 316   0.0000       2.223654        60.5087 
 317   0.0000       2.229791        60.6757 
 318   0.0000       2.236547        60.8595 
 319   0.0000       2.246697        61.1357 
 320   0.0000       2.262597        61.5684 
 321   0.0000       2.266732        61.6809 
 322   0.0000       2.277830        61.9829 
 323   0.0000       2.287604        62.2489 
 324   0.0000       2.293529        62.4101 
 325   0.0000       2.310879        62.8822 
 326   0.0000       2.318732        63.0959 
 327   0.0000       2.324001        63.2393 
 328   0.0000       2.330714        63.4220 
 329   0.0000       2.339068        63.6493 
 330   0.0000       2.373484        64.5858 
 331   0.0000       2.378138        64.7124 
 332   0.0000       2.382095        64.8201 
 333   0.0000       2.398547        65.2678 
 334   0.0000       2.417163        65.7744 
 335   0.0000       2.424290        65.9683 
 336   0.0000       2.426973        66.0413 
 337   0.0000       2.431934        66.1763 
 338   0.0000       2.441627        66.4401 
 339   0.0000       2.450213        66.6737 
 340   0.0000       2.466172        67.1080 
 341   0.0000       2.470801        67.2339 
 342   0.0000       2.480855        67.5075 
 343   0.0000       2.484297        67.6012 
 344   0.0000       2.494124        67.8686 
 345   0.0000       2.506981        68.2184 
 346   0.0000       2.525807        68.7307 
 347   0.0000       2.543053        69.2000 
 348   0.0000       2.567146        69.8556 
 349   0.0000       2.573105        70.0178 
 350   0.0000       2.579228        70.1844 
 351   0.0000       2.590800        70.4992 
 352   0.0000       2.602669        70.8222 
 353   0.0000       2.619233        71.2729 
 354   0.0000       2.624902        71.4272 
 355   0.0000       2.628850        71.5347 
 356   0.0000       2.633579        71.6633 
 357   0.0000       2.644579        71.9627 
 358   0.0000       2.650175        72.1149 
 359   0.0000       2.658011        72.3282 
 360   0.0000       2.677732        72.8648 
 361   0.0000       2.690052        73.2000 
 362   0.0000       2.701344        73.5073 
 363   0.0000       2.714948        73.8775 
 364   0.0000       2.717917        73.9583 
 365   0.0000       2.731924        74.3394 
 366   0.0000       2.741167        74.5909 
 367   0.0000       2.748940        74.8025 
 368   0.0000       2.752159        74.8901 
 369   0.0000       2.760985        75.1302 
 370   0.0000       2.770694        75.3944 
 371   0.0000       2.787498        75.8517 
 372   0.0000       2.801253        76.2260 
 373   0.0000       2.805224        76.3340 
 374   0.0000       2.819700        76.7279 
 375   0.0000       2.830071        77.0101 
 376   0.0000       2.832769        77.0836 
 377   0.0000       2.835001        77.1443 
 378   0.0000       2.848412        77.5092 
 379   0.0000       2.861827        77.8743 
 380   0.0000       2.870061        78.0983 
 381   0.0000       2.877209        78.2928 
 382   0.0000       2.887174        78.5640 
 383   0.0000       2.908133        79.1343 
 384   0.0000       2.914489        79.3073 
 385   0.0000       2.925679        79.6118 
 386   0.0000       2.931362        79.7664 
 387   0.0000       2.934003        79.8383 
 388   0.0000       2.941810        80.0507 
 389   0.0000       2.950981        80.3003 
 390   0.0000       2.978615        81.0522 
 391   0.0000       2.982515        81.1584 
 392   0.0000       2.996892        81.5496 
 393   0.0000       3.006643        81.8149 
 394   0.0000       3.018996        82.1511 
 395   0.0000       3.029551        82.4383 
 396   0.0000       3.041070        82.7517 
 397   0.0000       3.053455        83.0887 
 398   0.0000       3.056031        83.1588 
 399   0.0000       3.066203        83.4356 
 400   0.0000       3.072823        83.6158 
 401   0.0000       3.081610        83.8549 
 402   0.0000       3.088569        84.0442 
 403   0.0000       3.099830        84.3507 
 404   0.0000       3.103244        84.4436 
 405   0.0000       3.116282        84.7984 
 406   0.0000       3.126044        85.0640 
 407   0.0000       3.140881        85.4677 
 408   0.0000       3.149009        85.6889 
 409   0.0000       3.163258        86.0766 
 410   0.0000       3.169384        86.2433 
 411   0.0000       3.177089        86.4530 
 412   0.0000       3.184356        86.6507 
 413   0.0000       3.198208        87.0277 
 414   0.0000       3.207525        87.2812 
 415   0.0000       3.214246        87.4641 
 416   0.0000       3.215747        87.5049 
 417   0.0000       3.222151        87.6792 
 418   0.0000       3.233638        87.9918 
 419   0.0000       3.238231        88.1167 
 420   0.0000       3.247511        88.3693 
 421   0.0000       3.257865        88.6510 
 422   0.0000       3.262821        88.7859 
 423   0.0000       3.263881        88.8147 
 424   0.0000       3.276663        89.1625 
 425   0.0000       3.290778        89.5466 
 426   0.0000       3.291895        89.5770 
 427   0.0000       3.299627        89.7874 
 428   0.0000       3.307489        90.0013 
 429   0.0000       3.323947        90.4492 
 430   0.0000       3.333973        90.7220 
 431   0.0000       3.340944        90.9117 
 432   0.0000       3.347546        91.0914 
 433   0.0000       3.349570        91.1464 
 434   0.0000       3.366139        91.5973 
 435   0.0000       3.367089        91.6232 
 436   0.0000       3.378135        91.9237 
 437   0.0000       3.386052        92.1392 
 438   0.0000       3.389560        92.2346 
 439   0.0000       3.393998        92.3554 
 440   0.0000       3.403893        92.6246 
 441   0.0000       3.409512        92.7775 
 442   0.0000       3.423192        93.1498 
 443   0.0000       3.432911        93.4143 
 444   0.0000       3.435684        93.4897 
 445   0.0000       3.439476        93.5929 
 446   0.0000       3.454989        94.0150 
 447   0.0000       3.464033        94.2611 
 448   0.0000       3.475605        94.5760 
 449   0.0000       3.481292        94.7308 
 450   0.0000       3.485253        94.8385 
 451   0.0000       3.495346        95.1132 
 452   0.0000       3.500409        95.2510 
 453   0.0000       3.502777        95.3154 
 454   0.0000       3.505462        95.3885 
 455   0.0000       3.518674        95.7480 
 456   0.0000       3.542456        96.3951 
 457   0.0000       3.545925        96.4895 
 458   0.0000       3.548275        96.5535 
 459   0.0000       3.555726        96.7562 
 460   0.0000       3.565025        97.0093 
 461   0.0000       3.581206        97.4496 
 462   0.0000       3.583997        97.5255 
 463   0.0000       3.599695        97.9527 
 464   0.0000       3.602494        98.0288 
 465   0.0000       3.613274        98.3222 
 466   0.0000       3.617004        98.4237 
 467   0.0000       3.628494        98.7363 
 468   0.0000       3.649333        99.3034 
 469   0.0000       3.656300        99.4930 
 470   0.0000       3.666989        99.7838 
 471   0.0000       3.670395        99.8765 
 472   0.0000       3.675630       100.0190 
 473   0.0000       3.680587       100.1539 
 474   0.0000       3.700396       100.6929 
 475   0.0000       3.706944       100.8711 
 476   0.0000       3.724512       101.3491 
 477   0.0000       3.731197       101.5310 
 478   0.0000       3.745118       101.9098 
 479   0.0000       3.758564       102.2757 
 480   0.0000       3.778219       102.8106 
 481   0.0000       3.796345       103.3038 
 482   0.0000       3.806692       103.5854 
 483   0.0000       3.825048       104.0849 
 484   0.0000       3.836616       104.3996 
 485   0.0000       3.842466       104.5588 
 486   0.0000       3.862239       105.0969 
 487   0.0000       3.873895       105.4140 
 488   0.0000       3.904902       106.2578 
 489   0.0000       3.923451       106.7625 
 490   0.0000       3.934522       107.0638 
 491   0.0000       3.950412       107.4962 
 492   0.0000       3.973814       108.1330 
 493   0.0000       3.981057       108.3301 
 494   0.0000       4.003677       108.9456 
 495   0.0000       4.011063       109.1466 
 496   0.0000       4.014047       109.2278 
 497   0.0000       4.034979       109.7974 
 498   0.0000       4.063412       110.5711 
 499   0.0000       4.074394       110.8699 
 500   0.0000       4.077048       110.9421 
 501   0.0000       4.085128       111.1620 
 502   0.0000       4.100462       111.5793 
 503   0.0000       4.111979       111.8926 
 504   0.0000       4.121814       112.1603 
 505   0.0000       4.131099       112.4129 
 506   0.0000       4.150308       112.9356 
 507   0.0000       4.160501       113.2130 
 508   0.0000       4.184083       113.8547 
 509   0.0000       4.203924       114.3946 
 510   0.0000       4.217147       114.7544 
 511   0.0000       4.223357       114.9234 
 512   0.0000       4.242559       115.4459 
 513   0.0000       4.247594       115.5829 
 514   0.0000       4.265251       116.0634 
 515   0.0000       4.283756       116.5669 
 516   0.0000       4.290500       116.7504 
 517   0.0000       4.306473       117.1851 
 518   0.0000       4.317639       117.4889 
 519   0.0000       4.359952       118.6403 
 520   0.0000       4.376199       119.0824 
 521   0.0000       4.381947       119.2388 
 522   0.0000       4.423151       120.3600 
 523   0.0000       4.427850       120.4879 
 524   0.0000       4.458282       121.3160 
 525   0.0000       4.469740       121.6278 
 526   0.0000       4.485698       122.0620 
 527   0.0000       4.500868       122.4748 
 528   0.0000       4.527306       123.1943 
 529   0.0000       4.536579       123.4466 
 530   0.0000       4.545979       123.7024 
 531   0.0000       4.553737       123.9135 
 532   0.0000       4.604502       125.2949 
 533   0.0000       4.627268       125.9144 
 534   0.0000       4.656424       126.7077 
 535   0.0000       4.660454       126.8174 
 536   0.0000       4.687070       127.5417 
 537   0.0000       4.718975       128.4098 
 538   0.0000       4.731475       128.7500 
 539   0.0000       4.776386       129.9721 
 540   0.0000       4.799086       130.5898 
 541   0.0000       4.827485       131.3625 
 542   0.0000       4.835166       131.5715 
 543   0.0000       4.850014       131.9756 
 544   0.0000       4.854300       132.0922 
 545   0.0000       4.889700       133.0555 
 546   0.0000       4.903911       133.4422 
 547   0.0000       4.929487       134.1382 
 548   0.0000       4.962974       135.0494 
 549   0.0000       4.964680       135.0958 
 550   0.0000       4.998232       136.0088 
 551   0.0000       5.022827       136.6781 
 552   0.0000       5.083902       138.3400 
 553   0.0000       5.087759       138.4450 
 554   0.0000       5.094928       138.6400 
 555   0.0000       5.117082       139.2429 
 556   0.0000       5.148991       140.1112 
 557   0.0000       5.174492       140.8051 
 558   0.0000       5.191789       141.2758 
 559   0.0000       5.200393       141.5099 
 560   0.0000       5.246234       142.7573 
 561   0.0000       5.264884       143.2648 
 562   0.0000       5.286854       143.8626 
 563   0.0000       5.318530       144.7246 
 564   0.0000       5.338352       145.2639 
 565   0.0000       5.351689       145.6269 
 566   0.0000       5.359730       145.8457 
 567   0.0000       5.373948       146.2326 
 568   0.0000       5.376933       146.3138 
 569   0.0000       5.383131       146.4824 
 570   0.0000       5.388225       146.6210 
 571   0.0000       5.401800       146.9904 
 572   0.0000       5.415990       147.3766 
 573   0.0000       5.427503       147.6899 
 574   0.0000       5.451228       148.3355 
 575   0.0000       5.485081       149.2567 
[...]
     62       0.000008  -0.000287  -0.000000  -0.000011   0.000026  -0.000328
     63      -0.000018  -0.000042   0.000032   0.000019   0.009905   0.000061
     64       0.000234  -0.000004   0.001086  -0.000189  -0.064902  -0.002630
     65       0.000123   0.000012   0.000440  -0.000078  -0.033415  -0.001153
     66       0.000105  -0.000024  -0.003418  -0.000193  -0.138402  -0.005837
     67      -0.003119  -0.000280  -0.013438   0.002666   0.867593   0.030098
     68      -0.001209  -0.000166  -0.009084   0.000572   0.470169   0.016310
     69      -0.000003   0.000443  -0.000009   0.000017   0.000102  -0.000981
     70      -0.000004  -0.000513   0.000021  -0.000016  -0.000169   0.001458
     71      -0.000015  -0.000005  -0.000004  -0.000006  -0.000048   0.000290
     72      -0.000135  -0.000024  -0.023670  -0.000027  -0.000719   0.000061
     73      -0.000702  -0.000085  -0.082567  -0.000298  -0.000125  -0.000015
     74      -0.000471  -0.000068  -0.034697  -0.000242  -0.000433  -0.000018
     75       0.000005  -0.000019  -0.012655  -0.000139  -0.006274   0.000001
     76       0.007569   0.000884   0.737441   0.003766   0.015960   0.000686
     77       0.004989   0.000565   0.480635   0.002438   0.008134   0.000251
     78       0.001096   0.000014   0.267845   0.000299   0.002335  -0.000257
     79       0.001025   0.000021   0.297089   0.000367   0.000137  -0.000249
     80      -0.000438  -0.000046  -0.191205  -0.000280  -0.000056   0.000157
     81       0.000998   0.000042   0.034569   0.000249  -0.000919  -0.000282
     82      -0.000190  -0.000054  -0.043996  -0.000272   0.000566   0.000239
     83       0.000679   0.000213   0.127886   0.000762  -0.001815  -0.000342
     84       0.000547  -0.063534   0.000045  -0.000051  -0.000009   0.000231
     85      -0.000508   0.068757  -0.000054   0.000056   0.000015  -0.000273
     86      -0.000078  -0.003435  -0.000017  -0.000022   0.000015  -0.000043
     87      -0.002270   0.177250  -0.000302   0.000125   0.000184  -0.000819
     88      -0.000713   0.063513  -0.000069   0.000057   0.000046  -0.000143
     89       0.002343  -0.192175   0.000294  -0.000138  -0.000116   0.000437
     90      -0.001605   0.242970  -0.000145   0.000314   0.000128  -0.000661
     91       0.001437  -0.215291   0.000129  -0.000260  -0.000018   0.000403
     92      -0.003016   0.445298  -0.000258   0.000551   0.000149  -0.000737
     93      -0.002817   0.351311  -0.000386   0.000233   0.000141  -0.004041
     94       0.005377  -0.669279   0.000704  -0.000467  -0.000346   0.004207
     95       0.001652  -0.208968   0.000223  -0.000153  -0.000089   0.000836


-----------
IR SPECTRUM
-----------

 Mode   freq       eps      Int      T**2         TX        TY        TZ
       cm**-1   L/(mol*cm) km/mol    a.u.
----------------------------------------------------------------------------
  6:     24.19   0.000910    4.60  0.011747  (-0.020255  0.091324  0.054739)
  7:     34.26   0.000511    2.58  0.004652  ( 0.029520  0.009249 -0.060783)
  8:     51.70   0.000025    0.13  0.000150  ( 0.010683  0.005884 -0.001164)
  9:     63.82   0.000201    1.01  0.000981  ( 0.008030  0.014369  0.026645)
 10:     71.57   0.000537    2.72  0.002343  (-0.032846 -0.014943  0.032268)
 11:     94.39   0.001455    7.35  0.004809  ( 0.023683 -0.017092  0.062900)
 12:     99.32   0.001984   10.03  0.006236  (-0.020658 -0.015258  0.074672)
 13:    110.41   0.000477    2.41  0.001347  ( 0.018759  0.001865 -0.031487)
 14:    123.76   0.000154    0.78  0.000388  ( 0.013529  0.012524  0.006911)
 15:    148.28   0.000988    4.99  0.002079  ( 0.040047 -0.015402  0.015441)
 16:    167.87   0.001210    6.12  0.002250  (-0.047421 -0.000509 -0.000722)
 17:    233.53   0.000434    2.19  0.000580  ( 0.012289  0.020405 -0.003561)
 18:    238.10   0.000185    0.94  0.000243  (-0.015341  0.000419  0.002666)
 19:    286.38   0.001824    9.22  0.001988  ( 0.041544  0.011598  0.011288)
 20:    305.17   0.000089    0.45  0.000091  (-0.004202  0.000342 -0.008577)
 21:    321.40   0.000288    1.45  0.000279  (-0.013494 -0.009824 -0.000915)
 22:    335.76   0.000085    0.43  0.000079  ( 0.001175  0.007766 -0.004145)
 23:    354.87   0.000010    0.05  0.000009  ( 0.002942  0.000076  0.000498)
 24:    386.04   0.004236   21.41  0.003425  (-0.051704 -0.006880  0.026530)
 25:    401.71   0.001647    8.32  0.001279  ( 0.018048 -0.004067  0.030610)
 26:    452.15   0.002616   13.22  0.001805  ( 0.005862  0.041116  0.008975)
 27:    483.65   0.000103    0.52  0.000066  (-0.006483 -0.004452 -0.002093)
 28:    509.28   0.003844   19.43  0.002355  ( 0.037182  0.018772  0.024910)
 29:    536.34   0.010045   50.77  0.005845  ( 0.011808  0.020228 -0.072775)
 30:    559.30   0.003383   17.10  0.001888  ( 0.031854  0.004102 -0.029263)
 31:    606.38   0.000962    4.86  0.000495  (-0.010310  0.019271 -0.004189)
 32:    618.69   0.003846   19.43  0.001940  ( 0.002546 -0.015091  0.041298)
 33:    650.86   0.002989   15.10  0.001433  ( 0.008174 -0.017793  0.032397)
 34:    658.74   0.001546    7.81  0.000732  (-0.003342 -0.011089  0.024458)
 35:    675.21   0.006630   33.50  0.003064  ( 0.026535  0.026751 -0.040550)
 36:    718.31   0.007174   36.25  0.003116  (-0.016313 -0.008885  0.052644)
 37:    733.09   0.002885   14.58  0.001228  (-0.014127 -0.011668  0.029875)
 38:    757.30   0.001699    8.59  0.000700  ( 0.004917 -0.011081 -0.023520)
 39:    771.16   0.000093    0.47  0.000038  ( 0.005682  0.001878 -0.001396)
 40:    806.68   0.001546    7.81  0.000598  (-0.007753  0.020907  0.010044)
 41:    827.67   0.007321   37.00  0.002760  ( 0.016591 -0.004676 -0.049629)
 42:    864.10   0.000650    3.28  0.000235  ( 0.001980  0.004431  0.014531)
 43:    882.96   0.003980   20.11  0.001407  ( 0.019340 -0.005574 -0.031645)
 44:    947.72   0.000006    0.03  0.000002  (-0.001173  0.000495  0.000523)
 45:    955.64   0.002193   11.08  0.000716  ( 0.016183  0.021316 -0.000010)
 46:    975.84   0.002900   14.66  0.000927  (-0.028715 -0.006336 -0.007923)
 47:   1007.84   0.001078    5.45  0.000334  (-0.013774  0.011962 -0.001044)
 48:   1037.94   0.000796    4.02  0.000239  (-0.011119 -0.001929 -0.010575)
 49:   1045.70   0.001037    5.24  0.000309  (-0.014453 -0.001575 -0.009901)
 50:   1060.18   0.000934    4.72  0.000275  ( 0.005186  0.006904 -0.014152)
 51:   1090.14   0.001462    7.39  0.000418  (-0.012906 -0.015599 -0.002913)
 52:   1141.75   0.001987   10.04  0.000543  (-0.005132  0.022669 -0.001696)
 53:   1153.74   0.003035   15.34  0.000821  ( 0.021763  0.018588 -0.001282)
 54:   1175.16   0.000315    1.59  0.000084  (-0.000689 -0.005756  0.007069)
 55:   1185.86   0.000351    1.78  0.000092  ( 0.003448 -0.005253 -0.007277)
 56:   1193.14   0.000735    3.71  0.000192  (-0.012795 -0.005164 -0.001370)
 57:   1195.02   0.001375    6.95  0.000359  (-0.009787 -0.016063 -0.002290)
 58:   1197.07   0.004517   22.83  0.001178  ( 0.029257  0.007924  0.016090)
 59:   1252.84   0.003468   17.53  0.000864  ( 0.024070  0.009636  0.013843)
 60:   1288.35   0.000346    1.75  0.000084  ( 0.008611 -0.002502  0.001827)
 61:   1290.29   0.007503   37.92  0.001815  (-0.041441  0.001635  0.009728)
 62:   1314.46   0.001725    8.72  0.000410  ( 0.018430 -0.002260  0.008048)
 63:   1344.12   0.001992   10.07  0.000462  (-0.021313  0.001724  0.002298)
 64:   1365.17   0.001468    7.42  0.000336  ( 0.017534 -0.003900 -0.003590)
 65:   1385.90   0.000564    2.85  0.000127  (-0.009753  0.004173  0.003813)
 66:   1410.06   0.013989   70.69  0.003096  (-0.051669 -0.016424 -0.012509)
 67:   1446.61   0.002849   14.40  0.000615  (-0.000387 -0.023967 -0.006333)
 68:   1465.35   0.006010   30.37  0.001280  ( 0.029857  0.005257  0.018998)
 69:   1473.87   0.001376    6.95  0.000291  ( 0.004570 -0.008422  0.014125)
 70:   1482.59   0.003197   16.15  0.000673  ( 0.024640 -0.000860 -0.008062)
 71:   1486.94   0.006092   30.79  0.001278  ( 0.032653 -0.014554 -0.000668)
 72:   1501.00   0.004315   21.81  0.000897  ( 0.023314  0.009224 -0.016388)
 73:   1510.24   0.003653   18.46  0.000755  ( 0.026177 -0.008123  0.001893)
 74:   1548.41   0.018301   92.49  0.003688  ( 0.041655  0.021805  0.038442)
 75:   1554.11   0.129816  656.03  0.026067  ( 0.149074  0.033928  0.051890)
 76:   1602.70   0.013956   70.53  0.002717  ( 0.045199  0.016000 -0.020455)
 77:   1613.91   0.017407   87.97  0.003366  (-0.005453  0.057322 -0.007087)
 78:   1631.18   0.016424   83.00  0.003142  ( 0.024371  0.049594  0.009410)
 79:   1641.46   0.082729  418.08  0.015728  ( 0.104892  0.012692  0.067562)
 80:   1759.53   0.093267  471.33  0.016542  ( 0.000366 -0.122113 -0.040372)
 81:   1775.77   0.033315  168.36  0.005855  (-0.068549  0.033090 -0.007786)
 82:   3067.10   0.005795   29.29  0.000590  (-0.023972  0.003436  0.001786)
 83:   3067.76   0.003083   15.58  0.000314  ( 0.011935  0.012301 -0.004454)
 84:   3085.28   0.001561    7.89  0.000158  (-0.006412 -0.009295 -0.005510)
 85:   3106.44   0.001622    8.20  0.000163  (-0.012103 -0.003916  0.001064)
 86:   3125.20   0.001396    7.06  0.000139  ( 0.000943  0.011687 -0.001384)
 87:   3145.80   0.003119   15.76  0.000309  (-0.011374 -0.005989  0.012006)
 88:   3166.57   0.002154   10.88  0.000212  (-0.012465 -0.000703 -0.007507)
 89:   3167.97   0.000788    3.98  0.000078  (-0.001682 -0.000226  0.008643)
 90:   3173.46   0.002513   12.70  0.000247  (-0.000607  0.015407 -0.003061)
 91:   3175.71   0.002249   11.37  0.000221  (-0.008530  0.012147  0.000848)
 92:   3189.69   0.000692    3.50  0.000068  ( 0.000039 -0.007363 -0.003668)
 93:   3199.49   0.003377   17.06  0.000329  (-0.002535  0.017785 -0.002574)
 94:   3568.68   0.030550  154.39  0.002671  ( 0.003836  0.036264  0.036628)
 95:   3613.17   0.021250  107.39  0.001835  (-0.032037  0.027453  0.007433)

* The epsilon (eps) is given for a Dirac delta lineshape.
** The dipole moment derivative (T) already includes vibrational overlap.

The first frequency considered to be a vibration is 6
The total number of vibrations considered is 90


--------------------------
THERMOCHEMISTRY AT 298.15K
--------------------------

Temperature         ... 298.15 K
Pressure            ... 1.00 atm
Total Mass          ... 250.25 AMU

Throughout the following assumptions are being made:
  (1) The electronic state is orbitally nondegenerate
      but the spin degeneracy is treated
  (2) There are no thermally accessible electronically excited states
  (3) Hindered rotations indicated by low frequency modes are not
      treated as such but are treated as vibrations and this may
      cause some error
  (4) All equations used are the standard statistical mechanics
      equations for an ideal gas
  (5) All vibrations are strictly harmonic

freq.      24.19  E(vib)   ...       0.56 
freq.      34.26  E(vib)   ...       0.54 
freq.      51.70  E(vib)   ...       0.52 
freq.      63.82  E(vib)   ...       0.51 
freq.      71.57  E(vib)   ...       0.50 
freq.      94.39  E(vib)   ...       0.47 
freq.      99.32  E(vib)   ...       0.46 
freq.     110.41  E(vib)   ...       0.45 
freq.     123.76  E(vib)   ...       0.43 
freq.     148.28  E(vib)   ...       0.41 
freq.     167.87  E(vib)   ...       0.38 
freq.     233.53  E(vib)   ...       0.32 
freq.     238.10  E(vib)   ...       0.32 
freq.     286.38  E(vib)   ...       0.27 
freq.     305.17  E(vib)   ...       0.26 
freq.     321.40  E(vib)   ...       0.25 
freq.     335.76  E(vib)   ...       0.24 
freq.     354.87  E(vib)   ...       0.22 
freq.     386.04  E(vib)   ...       0.20 
freq.     401.71  E(vib)   ...       0.19 
freq.     452.15  E(vib)   ...       0.16 
freq.     483.65  E(vib)   ...       0.15 
freq.     509.28  E(vib)   ...       0.14 
freq.     536.34  E(vib)   ...       0.12 
freq.     559.30  E(vib)   ...       0.12 
freq.     606.38  E(vib)   ...       0.10 
freq.     618.69  E(vib)   ...       0.09 
freq.     650.86  E(vib)   ...       0.08 
freq.     658.74  E(vib)   ...       0.08 
freq.     675.21  E(vib)   ...       0.08 
freq.     718.31  E(vib)   ...       0.07 
freq.     733.09  E(vib)   ...       0.06 
freq.     757.30  E(vib)   ...       0.06 
freq.     771.16  E(vib)   ...       0.05 
freq.     806.68  E(vib)   ...       0.05 
freq.     827.67  E(vib)   ...       0.04 
freq.     864.10  E(vib)   ...       0.04 
freq.     882.96  E(vib)   ...       0.04 
freq.     947.72  E(vib)   ...       0.03 
freq.     955.64  E(vib)   ...       0.03 
freq.     975.84  E(vib)   ...       0.03 
freq.    1007.84  E(vib)   ...       0.02 
freq.    1037.94  E(vib)   ...       0.02 
freq.    1045.70  E(vib)   ...       0.02 
freq.    1060.18  E(vib)   ...       0.02 
freq.    1090.14  E(vib)   ...       0.02 
freq.    1141.75  E(vib)   ...       0.01 
freq.    1153.74  E(vib)   ...       0.01 
freq.    1175.16  E(vib)   ...       0.01 
freq.    1185.86  E(vib)   ...       0.01 
freq.    1193.14  E(vib)   ...       0.01 
freq.    1195.02  E(vib)   ...       0.01 
freq.    1197.07  E(vib)   ...       0.01 
freq.    1252.84  E(vib)   ...       0.01 
freq.    1288.35  E(vib)   ...       0.01 
freq.    1290.29  E(vib)   ...       0.01 
freq.    1314.46  E(vib)   ...       0.01 
freq.    1344.12  E(vib)   ...       0.01 
freq.    1365.17  E(vib)   ...       0.01 
freq.    1385.90  E(vib)   ...       0.00 
freq.    1410.06  E(vib)   ...       0.00 
freq.    1446.61  E(vib)   ...       0.00 
freq.    1465.35  E(vib)   ...       0.00 
freq.    1473.87  E(vib)   ...       0.00 
freq.    1482.59  E(vib)   ...       0.00 
freq.    1486.94  E(vib)   ...       0.00 
freq.    1501.00  E(vib)   ...       0.00 
freq.    1510.24  E(vib)   ...       0.00 
freq.    1548.41  E(vib)   ...       0.00 
freq.    1554.11  E(vib)   ...       0.00 
freq.    1602.70  E(vib)   ...       0.00 
freq.    1613.91  E(vib)   ...       0.00 
freq.    1631.18  E(vib)   ...       0.00 
freq.    1641.46  E(vib)   ...       0.00 
freq.    1759.53  E(vib)   ...       0.00 
freq.    1775.77  E(vib)   ...       0.00 
freq.    3067.10  E(vib)   ...       0.00 
freq.    3067.76  E(vib)   ...       0.00 
freq.    3085.28  E(vib)   ...       0.00 
freq.    3106.44  E(vib)   ...       0.00 
freq.    3125.20  E(vib)   ...       0.00 
freq.    3145.80  E(vib)   ...       0.00 
freq.    3166.57  E(vib)   ...       0.00 
freq.    3167.97  E(vib)   ...       0.00 
freq.    3173.46  E(vib)   ...       0.00 
freq.    3175.71  E(vib)   ...       0.00 
freq.    3189.69  E(vib)   ...       0.00 
freq.    3199.49  E(vib)   ...       0.00 
freq.    3568.68  E(vib)   ...       0.00 
freq.    3613.17  E(vib)   ...       0.00 

------------
INNER ENERGY
------------

The inner energy is: U= E(el) + E(ZPE) + E(vib) + E(rot) + E(trans)
    E(el)   - is the total energy from the electronic structure calculation
              = E(kin-el) + E(nuc-el) + E(el-el) + E(nuc-nuc)
    E(ZPE)  - the the zero temperature vibrational energy from the frequency calculation
    E(vib)  - the the finite temperature correction to E(ZPE) due to population
              of excited vibrational states
    E(rot)  - is the rotational thermal energy
    E(trans)- is the translational thermal energy

Summary of contributions to the inner energy U:
Electronic energy                ...   -876.17943883 Eh
Zero point energy                ...      0.25361544 Eh     159.15 kcal/mol
Thermal vibrational correction   ...      0.01495088 Eh       9.38 kcal/mol
Thermal rotational correction    ...      0.00141627 Eh       0.89 kcal/mol
Thermal translational correction ...      0.00141627 Eh       0.89 kcal/mol
-----------------------------------------------------------------------
Total thermal energy                   -875.90803997 Eh


Summary of corrections to the electronic energy:
(perhaps to be used in another calculation)
Total thermal correction                  0.01778342 Eh      11.16 kcal/mol
Non-thermal (ZPE) correction              0.25361544 Eh     159.15 kcal/mol
-----------------------------------------------------------------------
Total correction                          0.27139886 Eh     170.30 kcal/mol


--------
ENTHALPY
--------

The enthalpy is H = U + kB*T
                kB is Boltzmann's constant
Total free energy                 ...   -875.90803997 Eh 
Thermal Enthalpy correction       ...      0.00094421 Eh       0.59 kcal/mol
-----------------------------------------------------------------------
Total Enthalpy                    ...   -875.90709576 Eh


Note: Only C1 symmetry has been detected, increase convergence thresholds 
      if your molecule has a higher symmetry. Symmetry factor of 1.0 is   
      used for the rotational entropy correction. 
 

Note: Rotational entropy computed according to Herzberg 
Infrared and Raman Spectra, Chapter V,1, Van Nostrand Reinhold, 1945 
Point Group:  C1, Symmetry Number:   1  
Rotational constants in cm-1:     0.025747     0.007858     0.006728 

Vibrational entropy computed according to the QRRHO of S. Grimme
Chem.Eur.J. 2012 18 9955


-------
ENTROPY
-------

The entropy contributions are T*S = T*(S(el)+S(vib)+S(rot)+S(trans))
     S(el)   - electronic entropy
     S(vib)  - vibrational entropy
     S(rot)  - rotational entropy
     S(trans)- translational entropy
The entropies will be listed as multiplied by the temperature to get
units of energy

Electronic entropy                ...      0.00065446 Eh      0.41 kcal/mol
Vibrational entropy               ...      0.02688211 Eh     16.87 kcal/mol
Rotational entropy                ...      0.01588740 Eh      9.97 kcal/mol
Translational entropy             ...      0.02017040 Eh     12.66 kcal/mol
-----------------------------------------------------------------------
Final entropy term                ...      0.06359437 Eh     39.91 kcal/mol

In case the symmetry of your molecule has not been determined correctly
or in case you have a reason to use a different symmetry number we print 
out the resulting rotational entropy values for sn=1,12 :
 --------------------------------------------------------
|  sn= 1 | S(rot)=       0.01588740 Eh      9.97 kcal/mol|
|  sn= 2 | S(rot)=       0.01523295 Eh      9.56 kcal/mol|
|  sn= 3 | S(rot)=       0.01485012 Eh      9.32 kcal/mol|
|  sn= 4 | S(rot)=       0.01457849 Eh      9.15 kcal/mol|
|  sn= 5 | S(rot)=       0.01436780 Eh      9.02 kcal/mol|
|  sn= 6 | S(rot)=       0.01419566 Eh      8.91 kcal/mol|
|  sn= 7 | S(rot)=       0.01405011 Eh      8.82 kcal/mol|
|  sn= 8 | S(rot)=       0.01392403 Eh      8.74 kcal/mol|
|  sn= 9 | S(rot)=       0.01381283 Eh      8.67 kcal/mol|
|  sn=10 | S(rot)=       0.01371335 Eh      8.61 kcal/mol|
|  sn=11 | S(rot)=       0.01362336 Eh      8.55 kcal/mol|
|  sn=12 | S(rot)=       0.01354120 Eh      8.50 kcal/mol|
 --------------------------------------------------------


-------------------
GIBBS FREE ENERGY
-------------------

The Gibbs free energy is G = H - T*S

Total enthalpy                    ...   -875.90709576 Eh 
Total entropy correction          ...     -0.06359437 Eh    -39.91 kcal/mol
-----------------------------------------------------------------------
Final Gibbs free energy         ...   -875.97069013 Eh

For completeness - the Gibbs free energy minus the electronic energy
G-E(el)                           ...      0.20874870 Eh    130.99 kcal/mol


Timings for individual modules:

Sum of individual times         ...     2545.949 sec (=  42.432 min)
GTO integral calculation        ...       38.260 sec (=   0.638 min)   1.5 %
SCF iterations                  ...      841.562 sec (=  14.026 min)  33.1 %
SCF Gradient evaluation         ...      210.210 sec (=   3.504 min)   8.3 %
Geometry relaxation             ...        0.587 sec (=   0.010 min)   0.0 %
Analytical frequency calculation...     1455.329 sec (=  24.255 min)  57.2 %
                             ****ORCA TERMINATED NORMALLY****
TOTAL RUN TIME: 0 days 0 hours 42 minutes 57 seconds 865 msec
