
                                 *****************
                                 * O   R   C   A *
                                 *****************

                                            #,                                       
                                            ###                                      
                                            ####                                     
                                            #####                                    
                                            ######                                   
                                           ########,                                 
                                     ,,################,,,,,                         
                               ,,#################################,,                 
                          ,,##########################################,,             
                       ,#########################################, ''#####,          
                    ,#############################################,,   '####,        
                  ,##################################################,,,,####,       
                ,###########''''           ''''###############################       
              ,#####''   ,,,,##########,,,,          '''####'''          '####       
            ,##' ,,,,###########################,,,                        '##       
           ' ,,###''''                  '''############,,,                           
         ,,##''                                '''############,,,,        ,,,,,,###''
      ,#''                                            '''#######################'''  
     '                                                          ''''####''''         
             ,#######,   #######,   ,#######,      ##                                
            ,#'     '#,  ##    ##  ,#'     '#,    #''#        ######   ,####,        
            ##       ##  ##   ,#'  ##            #'  '#       #        #'  '#        
            ##       ##  #######   ##           ,######,      #####,   #    #        
            '#,     ,#'  ##    ##  '#,     ,#' ,#      #,         ##   #,  ,#        
             '#######'   ##     ##  '#######'  #'      '#     #####' # '####'        



                  #######################################################
                  #                        -***-                        #
                  #          Department of theory and spectroscopy      #
                  #    Directorship and core code : Frank Neese         #
                  #        Max Planck Institute fuer Kohlenforschung    #
                  #                Kaiser Wilhelm Platz 1               #
                  #                 D-45470 Muelheim/Ruhr               #
                  #                      Germany                        #
                  #                                                     #
                  #                  All rights reserved                #
                  #                        -***-                        #
                  #######################################################


                         Program Version 5.0.4 -  RELEASE  -


 With contributions from (in alphabetic order):
   Daniel Aravena         : Magnetic Suceptibility
   Michael Atanasov       : Ab Initio Ligand Field Theory (pilot matlab implementation)
   Alexander A. Auer      : GIAO ZORA, VPT2 properties, NMR spectrum
   Ute Becker             : Parallelization
   Giovanni Bistoni       : ED, misc. LED, open-shell LED, HFLD
   Martin Brehm           : Molecular dynamics
   Dmytro Bykov           : SCF Hessian
   Vijay G. Chilkuri      : MRCI spin determinant printing, contributions to CSF-ICE
   Dipayan Datta          : RHF DLPNO-CCSD density
   Achintya Kumar Dutta   : EOM-CC, STEOM-CC
   Dmitry Ganyushin       : Spin-Orbit,Spin-Spin,Magnetic field MRCI
   Miquel Garcia          : C-PCM and meta-GGA Hessian, CC/C-PCM, Gaussian charge scheme
   Yang Guo               : DLPNO-NEVPT2, F12-NEVPT2, CIM, IAO-localization
   Andreas Hansen         : Spin unrestricted coupled pair/coupled cluster methods
   Benjamin Helmich-Paris : MC-RPA, TRAH-SCF, COSX integrals
   Lee Huntington         : MR-EOM, pCC
   Robert Izsak           : Overlap fitted RIJCOSX, COSX-SCS-MP3, EOM
   Marcus Kettner         : VPT2
   Christian Kollmar      : KDIIS, OOCD, Brueckner-CCSD(T), CCSD density, CASPT2, CASPT2-K
   Simone Kossmann        : Meta GGA functionals, TD-DFT gradient, OOMP2, MP2 Hessian
   Martin Krupicka        : Initial AUTO-CI
   Lucas Lang             : DCDCAS
   Marvin Lechner         : AUTO-CI (C++ implementation), FIC-MRCC
   Dagmar Lenk            : GEPOL surface, SMD
   Dimitrios Liakos       : Extrapolation schemes; Compound Job, initial MDCI parallelization
   Dimitrios Manganas     : Further ROCIS development; embedding schemes
   Dimitrios Pantazis     : SARC Basis sets
   Anastasios Papadopoulos: AUTO-CI, single reference methods and gradients
   Taras Petrenko         : DFT Hessian,TD-DFT gradient, ASA, ECA, R-Raman, ABS, FL, XAS/XES, NRVS
   Peter Pinski           : DLPNO-MP2, DLPNO-MP2 Gradient
   Christoph Reimann      : Effective Core Potentials
   Marius Retegan         : Local ZFS, SOC
   Christoph Riplinger    : Optimizer, TS searches, QM/MM, DLPNO-CCSD(T), (RO)-DLPNO pert. Triples
   Tobias Risthaus        : Range-separated hybrids, TD-DFT gradient, RPA, STAB
   Michael Roemelt        : Original ROCIS implementation
   Masaaki Saitow         : Open-shell DLPNO-CCSD energy and density
   Barbara Sandhoefer     : DKH picture change effects
   Avijit Sen             : IP-ROCIS
   Kantharuban Sivalingam : CASSCF convergence, NEVPT2, FIC-MRCI
   Bernardo de Souza      : ESD, SOC TD-DFT
   Georgi Stoychev        : AutoAux, RI-MP2 NMR, DLPNO-MP2 response
   Willem Van den Heuvel  : Paramagnetic NMR
   Boris Wezisla          : Elementary symmetry handling
   Frank Wennmohs         : Technical directorship


 We gratefully acknowledge several colleagues who have allowed us to
 interface, adapt or use parts of their codes:
   Stefan Grimme, W. Hujo, H. Kruse, P. Pracht,  : VdW corrections, initial TS optimization,
                  C. Bannwarth, S. Ehlert          DFT functionals, gCP, sTDA/sTD-DF
   Ed Valeev, F. Pavosevic, A. Kumar             : LibInt (2-el integral package), F12 methods
   Garnet Chan, S. Sharma, J. Yang, R. Olivares  : DMRG
   Ulf Ekstrom                                   : XCFun DFT Library
   Mihaly Kallay                                 : mrcc  (arbitrary order and MRCC methods)
   Jiri Pittner, Ondrej Demel                    : Mk-CCSD
   Frank Weinhold                                : gennbo (NPA and NBO analysis)
   Christopher J. Cramer and Donald G. Truhlar   : smd solvation model
   Lars Goerigk                                  : TD-DFT with DH, B97 family of functionals
   V. Asgeirsson, H. Jonsson                     : NEB implementation
   FAccTs GmbH                                   : IRC, NEB, NEB-TS, DLPNO-Multilevel, CI-OPT
                                                   MM, QMMM, 2- and 3-layer-ONIOM, Crystal-QMMM,
                                                   LR-CPCM, SF, NACMEs, symmetry and pop. for TD-DFT,
                                                   nearIR, NL-DFT gradient (VV10), updates on ESD,
                                                   ML-optimized integration grids
   S Lehtola, MJT Oliveira, MAL Marques          : LibXC Library
   Liviu Ungur et al                             : ANISO software


 Your calculation uses the libint2 library for the computation of 2-el integrals
 For citations please refer to: http://libint.valeyev.net

 Your ORCA version has been built with support for libXC version: 5.1.0
 For citations please refer to: https://tddft.org/programs/libxc/

 This ORCA versions uses:
   CBLAS   interface :  Fast vector & matrix operations
   LAPACKE interface :  Fast linear algebra routines
   SCALAPACK package :  Parallel linear algebra routines
   Shared memory     :  Shared parallel matrices
   BLAS/LAPACK       :  OpenBLAS 0.3.15  USE64BITINT DYNAMIC_ARCH NO_AFFINITY Zen SINGLE_THREADED
        Core in use  :  Zen
   Copyright (c) 2011-2014, The OpenBLAS Project




***************************************
The coordinates will be read from file: opt.xyz
***************************************


XCFun DFT library Copyright 2009-2010 Ulf Ekstrom and contributors.
See http://admol.org/xcfun for more information.
This is free software; see the source code for copying conditions.
There is ABSOLUTELY NO WARRANTY; not even for MERCHANTABILITY or FITNESS FOR A PARTICULAR PURPOSE.
For details see the documentation.
Scientific users of this library should cite U. Ekstrom, L. Visscher, R. Bast, A. J. Thorvaldsen and K. Ruud;
J.Chem.Theor.Comp. 2010, DOI: 10.1021/ct100117s
XCFun Version 0.99 

================================================================================

----- Orbital basis set information -----
Your calculation utilizes the basis: def2-TZVP
   F. Weigend and R. Ahlrichs, Phys. Chem. Chem. Phys. 7, 3297 (2005).

----- AuxJ basis set information -----
Your calculation utilizes the auxiliary basis: def2/J
   F. Weigend, Phys. Chem. Chem. Phys. 8, 1057 (2006).

================================================================================
                                        WARNINGS
                       Please study these warnings very carefully!
================================================================================


WARNING: Geometry Optimization
  ===> : Switching off AutoStart
         For restart on a previous wavefunction, please use MOREAD

WARNING: Minnesota functionals are quite sensitive to the integration grid.
         see SE Wheeler, KN Houk, JCTC 2010, 6, 395,
             N Mardirossian, M Head-Gordon, JCTC 2016, 12, 4303.
         DEFGRID3 seems to be a minimum grid for reliable results with these functionals!
  ===> : Please increase the integration grid!


INFO   : the flag for use of the SHARK integral package has been found!

================================================================================
                                       INPUT FILE
================================================================================
NAME = freq.inp
|  1> ! M062X def2-TZVP OPT FREQ
|  2> %pal nprocs 16 end
|  3> *XYZFile -1 1 opt.xyz
|  4> 
|  5>                          ****END OF INPUT****
================================================================================

                       *****************************
                       * Geometry Optimization Run *
                       *****************************

Geometry optimization settings:
Update method            Update   .... BFGS
Choice of coordinates    CoordSys .... Z-matrix Internals
Initial Hessian          InHess   .... Almoef's Model

Convergence Tolerances:
Energy Change            TolE     ....  5.0000e-06 Eh
Max. Gradient            TolMAXG  ....  3.0000e-04 Eh/bohr
RMS Gradient             TolRMSG  ....  1.0000e-04 Eh/bohr
Max. Displacement        TolMAXD  ....  4.0000e-03 bohr
RMS Displacement         TolRMSD  ....  2.0000e-03 bohr
Strict Convergence                ....  False
------------------------------------------------------------------------------
                        ORCA OPTIMIZATION COORDINATE SETUP
------------------------------------------------------------------------------

The optimization will be done in new redundant internal coordinates
Making redundant internal coordinates   ...  (new redundants) done
Evaluating the initial hessian          ...  (Almloef) done
Evaluating the coordinates              ...  done
Calculating the B-matrix                .... done
Calculating the G-matrix                .... done
Diagonalizing the G-matrix              .... done
Small eigenvalue found = 3.905e-03
Small eigenvalue found = 6.617e-03
Small eigenvalue found = 1.017e-02
Small eigenvalue found = 2.146e-02
Small eigenvalue found = 2.827e-02
The first mode is                       ....   68
The number of degrees of freedom        ....   93

    -----------------------------------------------------------------
                    Redundant Internal Coordinates


    -----------------------------------------------------------------
         Definition                    Initial Value    Approx d2E/dq
    -----------------------------------------------------------------
      1. B(C   1,N   0)                  1.4576         0.436477   
      2. B(C   2,C   1)                  1.5440         0.354853   
      3. B(O   3,C   2)                  1.2420         0.963861   
      4. B(C   4,C   1)                  1.5699         0.322630   
      5. B(C   5,C   4)                  1.5138         0.396488   
      6. B(C   6,C   5)                  1.4225         0.554456   
      7. B(C   7,C   6)                  1.3924         0.619329   
      8. B(C   8,C   7)                  1.4681         0.468909   
      9. B(C   9,C   8)                  1.4499         0.501332   
     10. B(C  10,C   9)                  1.4034         0.594874   
     11. B(C  10,C   5)                  1.4099         0.580737   
     12. B(H  11,N   0)                  1.0134         0.427362   
     13. B(H  12,C   1)                  1.0941         0.354653   
     14. B(H  13,C   4)                  1.0976         0.350154   
     15. B(H  14,C   4)                  1.0980         0.349658   
     16. B(H  15,C   6)                  1.0953         0.353135   
     17. B(O  16,C   7)                  1.3914         0.556744   
     18. B(O  17,C   8)                  1.2651         0.885533   
     19. B(H  18,C   9)                  1.0891         0.361250   
     20. B(H  19,C  10)                  1.0919         0.357594   
     21. B(C  20,N   0)                  1.3588         0.627597   
     22. B(N  21,C   2)                  1.3569         0.632066   
     23. B(H  22,O  16)                  0.9642         0.511937   
     24. B(H  23,N  21)                  1.0185         0.419383   
     25. B(O  24,C  20)                  1.2344         0.991105   
     26. B(C  25,N  21)                  1.4582         0.435555   
     27. B(H  26,C  25)                  1.0917         0.357815   
     28. B(H  27,C  25)                  1.0920         0.357461   
     29. B(H  28,C  25)                  1.0968         0.351180   
     30. B(C  29,C  20)                  1.5315         0.371484   
     31. B(H  30,C  29)                  1.0941         0.354706   
     32. B(H  31,C  29)                  1.0934         0.355634   
     33. B(H  32,C  29)                  1.0938         0.355130   
     34. A(H  11,N   0,C  20)          120.9892         0.358653   
     35. A(C   1,N   0,H  11)          113.5900         0.337375   
     36. A(C   1,N   0,C  20)          124.3219         0.403356   
     37. A(N   0,C   1,C   2)          106.1752         0.367588   
     38. A(C   2,C   1,C   4)          112.7667         0.351326   
     39. A(N   0,C   1,C   4)          112.0771         0.361649   
     40. A(N   0,C   1,H  12)          108.6996         0.329917   
     41. A(C   4,C   1,H  12)          107.6589         0.315854   
     42. A(C   2,C   1,H  12)          109.3918         0.320795   
     43. A(O   3,C   2,N  21)          123.6335         0.465696   
     44. A(C   1,C   2,N  21)          115.2236         0.391940   
     45. A(C   1,C   2,O   3)          121.1379         0.422299   
     46. A(C   1,C   4,C   5)          114.3428         0.357997   
     47. A(C   1,C   4,H  14)          105.0098         0.315127   
     48. A(H  13,C   4,H  14)          107.1785         0.288233   
     49. A(C   5,C   4,H  14)          111.9952         0.325928   
     50. A(C   5,C   4,H  13)          110.3285         0.326004   
     51. A(C   1,C   4,H  13)          107.5792         0.315200   
     52. A(C   4,C   5,C   6)          121.0427         0.393070   
     53. A(C   4,C   5,C  10)          122.2091         0.396274   
     54. A(C   6,C   5,C  10)          116.5332         0.420504   
     55. A(C   5,C   6,C   7)          122.4178         0.425367   
     56. A(C   7,C   6,H  15)          118.6761         0.351680   
     57. A(C   5,C   6,H  15)          118.9057         0.345184   
     58. A(C   8,C   7,O  16)          116.0896         0.402531   
     59. A(C   6,C   7,O  16)          120.9894         0.422910   
     60. A(C   6,C   7,C   8)          122.9210         0.412847   
     61. A(C   9,C   8,O  17)          124.4388         0.442566   
     62. A(C   7,C   8,O  17)          123.0628         0.437256   
     63. A(C   7,C   8,C   9)          112.4983         0.397719   
     64. A(C  10,C   9,H  18)          120.1763         0.350638   
     65. A(C   8,C   9,H  18)          115.9569         0.340700   
     66. A(C   8,C   9,C  10)          123.8580         0.414801   
     67. A(C   5,C  10,H  19)          119.2339         0.348619   
     68. A(C   5,C  10,C   9)          121.7497         0.425825   
     69. A(C   9,C  10,H  19)          119.0162         0.350036   
     70. A(C   7,O  16,H  22)          106.4963         0.362388   
     71. A(O  24,C  20,C  29)          120.8456         0.427903   
     72. A(N   0,C  20,C  29)          115.2363         0.394606   
     73. A(N   0,C  20,O  24)          123.9129         0.467472   
     74. A(H  23,N  21,C  25)          117.5540         0.336199   
     75. A(C   2,N  21,C  25)          121.3290         0.403711   
     76. A(C   2,N  21,H  23)          115.6595         0.357937   
     77. A(H  27,C  25,H  28)          108.6153         0.289363   
     78. A(H  26,C  25,H  28)          108.6631         0.289408   
     79. A(N  21,C  25,H  28)          111.6104         0.329266   
     80. A(H  26,C  25,H  27)          109.7336         0.290213   
     81. A(N  21,C  25,H  27)          108.7455         0.330232   
     82. A(N  21,C  25,H  26)          109.4537         0.330286   
     83. A(H  30,C  29,H  32)          109.0989         0.289519   
     84. A(C  20,C  29,H  32)          113.5808         0.323282   
     85. A(H  30,C  29,H  31)          107.7050         0.289584   
     86. A(C  20,C  29,H  31)          108.4734         0.323357   
     87. A(H  31,C  29,H  32)          109.4871         0.289638   
     88. A(C  20,C  29,H  30)          108.3287         0.323219   
     89. D(C   4,C   1,N   0,H  11)   -107.3232         0.016244   
     90. D(H  12,C   1,N   0,H  11)    133.8033         0.016244   
     91. D(H  12,C   1,N   0,C  20)    -34.2670         0.016244   
     92. D(C   2,C   1,N   0,C  20)   -151.8578         0.016244   
     93. D(C   2,C   1,N   0,H  11)     16.2125         0.016244   
     94. D(C   4,C   1,N   0,C  20)     84.6065         0.016244   
     95. D(O   3,C   2,C   1,N   0)    -13.4241         0.009492   
     96. D(O   3,C   2,C   1,C   4)    109.6787         0.009492   
     97. D(N  21,C   2,C   1,C   4)    -71.1022         0.009492   
     98. D(N  21,C   2,C   1,N   0)    165.7950         0.009492   
     99. D(O   3,C   2,C   1,H  12)   -130.5532         0.009492   
    100. D(N  21,C   2,C   1,H  12)     48.6659         0.009492   
    101. D(C   5,C   4,C   1,H  12)    -62.3587         0.008517   
    102. D(H  13,C   4,C   1,N   0)     55.2462         0.008517   
    103. D(C   5,C   4,C   1,C   2)     58.4045         0.008517   
    104. D(H  14,C   4,C   1,H  12)     60.7961         0.008517   
    105. D(H  14,C   4,C   1,C   2)   -178.4407         0.008517   
    106. D(H  14,C   4,C   1,N   0)    -58.6895         0.008517   
    107. D(H  13,C   4,C   1,C   2)    -64.5050         0.008517   
    108. D(H  13,C   4,C   1,H  12)    174.7317         0.008517   
    109. D(C   5,C   4,C   1,N   0)    178.1558         0.008517   
    110. D(C  10,C   5,C   4,H  14)    -55.5850         0.011676   
    111. D(C  10,C   5,C   4,H  13)   -174.8820         0.011676   
    112. D(C   6,C   5,C   4,H  14)    129.9292         0.011676   
    113. D(C   6,C   5,C   4,H  13)     10.6323         0.011676   
    114. D(C   6,C   5,C   4,C   1)   -110.7753         0.011676   
    115. D(C  10,C   5,C   4,C   1)     63.7104         0.011676   
    116. D(H  15,C   6,C   5,C  10)    179.8729         0.021042   
    117. D(H  15,C   6,C   5,C   4)     -5.3411         0.021042   
    118. D(C   7,C   6,C   5,C  10)     -0.3413         0.021042   
    119. D(C   7,C   6,C   5,C   4)    174.4446         0.021042   
    120. D(O  16,C   7,C   6,H  15)     -1.3180         0.026538   
    121. D(O  16,C   7,C   6,C   5)    178.8958         0.026538   
    122. D(C   8,C   7,C   6,H  15)    178.7307         0.026538   
    123. D(C   8,C   7,C   6,C   5)     -1.0555         0.026538   
    124. D(O  17,C   8,C   7,O  16)      1.2932         0.014972   
    125. D(O  17,C   8,C   7,C   6)   -178.7533         0.014972   
    126. D(C   9,C   8,C   7,O  16)   -178.5759         0.014972   
    127. D(C   9,C   8,C   7,C   6)      1.3776         0.014972   
    128. D(H  18,C   9,C   8,O  17)     -1.3623         0.017120   
    129. D(H  18,C   9,C   8,C   7)    178.5047         0.017120   
    130. D(C  10,C   9,C   8,O  17)    179.7194         0.017120   
    131. D(C  10,C   9,C   8,C   7)     -0.4135         0.017120   
    132. D(H  19,C  10,C   9,H  18)      0.3809         0.024373   
    133. D(H  19,C  10,C   9,C   8)    179.2559         0.024373   
    134. D(C   5,C  10,C   9,H  18)   -179.8013         0.024373   
    135. D(C   5,C  10,C   9,C   8)     -0.9264         0.024373   
    136. D(H  19,C  10,C   5,C   6)   -178.8808         0.023173   
    137. D(H  19,C  10,C   5,C   4)      6.3992         0.023173   
    138. D(C   9,C  10,C   5,C   6)      1.3018         0.023173   
    139. D(C   9,C  10,C   5,C   4)   -173.4181         0.023173   
    140. D(H  22,O  16,C   7,C   8)    176.8990         0.022444   
    141. D(H  22,O  16,C   7,C   6)     -3.0555         0.022444   
    142. D(C  29,C  20,N   0,H  11)      9.9734         0.031956   
    143. D(C  29,C  20,N   0,C   1)    177.2069         0.031956   
    144. D(O  24,C  20,N   0,H  11)   -170.8486         0.031956   
    145. D(O  24,C  20,N   0,C   1)     -3.6151         0.031956   
    146. D(C  25,N  21,C   2,O   3)    -10.3305         0.032450   
    147. D(C  25,N  21,C   2,C   1)    170.4723         0.032450   
    148. D(H  23,N  21,C   2,O   3)   -163.6098         0.032450   
    149. D(H  23,N  21,C   2,C   1)     17.1930         0.032450   
    150. D(H  26,C  25,N  21,H  23)   -162.4283         0.016175   
    151. D(H  26,C  25,N  21,C   2)     44.7752         0.016175   
    152. D(H  28,C  25,N  21,H  23)     77.2433         0.016175   
    153. D(H  28,C  25,N  21,C   2)    -75.5533         0.016175   
    154. D(H  27,C  25,N  21,H  23)    -42.5594         0.016175   
    155. D(H  27,C  25,N  21,C   2)    164.6440         0.016175   
    156. D(H  32,C  29,C  20,O  24)    176.1496         0.010328   
    157. D(H  32,C  29,C  20,N   0)     -4.6450         0.010328   
    158. D(H  31,C  29,C  20,O  24)     54.1721         0.010328   
    159. D(H  31,C  29,C  20,N   0)   -126.6225         0.010328   
    160. D(H  30,C  29,C  20,O  24)    -62.4719         0.010328   
    161. D(H  30,C  29,C  20,N   0)    116.7335         0.010328   
    -----------------------------------------------------------------

Number of atoms                         .... 33
Number of degrees of freedom            .... 161

         *************************************************************
         *                GEOMETRY OPTIMIZATION CYCLE   1            *
         *************************************************************
---------------------------------
CARTESIAN COORDINATES (ANGSTROEM)
---------------------------------
  N      0.862300   -0.831095   -3.706480
  C      1.883923    0.088290   -3.220959
  C      3.240511   -0.508845   -3.653417
  O      3.326022   -1.677934   -4.063857
  C      1.786009    0.313765   -1.670414
  C      2.852110    1.227193   -1.104148
  C      3.879578    0.720804   -0.260690
  C      4.936965    1.510071    0.183996
  C      5.094937    2.919607   -0.195027
  C      4.019023    3.389253   -1.045989
  C      2.949334    2.585518   -1.469301
  H      1.225511   -1.741148   -3.964992
  H      1.742481    1.058300   -3.707002
  H      1.832657   -0.671338   -1.188570
  H      0.775147    0.708748   -1.503766
  H      3.841142   -0.329223    0.048643
  O      5.914020    0.989936    1.027082
  O      6.066727    3.632782    0.188884
  H      4.066887    4.436664   -1.340687
  H      2.174248    3.024798   -2.100587
  C     -0.405126   -0.465347   -4.032287
  N      4.298668    0.335845   -3.564825
  H      5.651215    0.083400    1.224230
  H      4.157736    1.159821   -2.982954
  O     -0.849810    0.677561   -3.891683
  C      5.665736   -0.140407   -3.740036
  H      5.711062   -0.805511   -4.604597
  H      6.318939    0.719608   -3.901804
  H      6.019175   -0.687411   -2.857484
  C     -1.287608   -1.588960   -4.583917
  H     -2.120560   -1.743634   -3.891573
  H     -1.706084   -1.263112   -5.540065
  H     -0.756291   -2.535058   -4.721624

----------------------------
CARTESIAN COORDINATES (A.U.)
----------------------------
  NO LB      ZA    FRAG     MASS         X           Y           Z
   0 N     7.0000    0    14.007    1.629511   -1.570541   -7.004233
   1 C     6.0000    0    12.011    3.560098    0.166844   -6.086731
   2 C     6.0000    0    12.011    6.123679   -0.961577   -6.903958
   3 O     8.0000    0    15.999    6.285271   -3.170835   -7.679576
   4 C     6.0000    0    12.011    3.375069    0.592931   -3.156625
   5 C     6.0000    0    12.011    5.389707    2.319058   -2.086538
   6 C     6.0000    0    12.011    7.331339    1.362121   -0.492633
   7 C     6.0000    0    12.011    9.329512    2.853621    0.347701
   8 C     6.0000    0    12.011    9.628036    5.517257   -0.368548
   9 C     6.0000    0    12.011    7.594852    6.404760   -1.976632
  10 C     6.0000    0    12.011    5.573434    4.885921   -2.776576
  11 H     1.0000    0     1.008    2.315880   -3.290293   -7.492749
  12 H     1.0000    0     1.008    3.292812    1.999897   -7.005218
  13 H     1.0000    0     1.008    3.463221   -1.268644   -2.246072
  14 H     1.0000    0     1.008    1.464815    1.339339   -2.841707
  15 H     1.0000    0     1.008    7.258707   -0.622141    0.091921
  16 O     8.0000    0    15.999   11.175877    1.870708    1.940904
  17 O     8.0000    0    15.999   11.464453    6.864964    0.356940
  18 H     1.0000    0     1.008    7.685303    8.384081   -2.533531
  19 H     1.0000    0     1.008    4.108734    5.716039   -3.969535
  20 C     6.0000    0    12.011   -0.765577   -0.879378   -7.619918
  21 N     7.0000    0    14.007    8.123305    0.634655   -6.736543
  22 H     1.0000    0     1.008   10.679248    0.157603    2.313459
  23 H     1.0000    0     1.008    7.856981    2.191743   -5.636967
  24 O     8.0000    0    15.999   -1.605909    1.280405   -7.354215
  25 C     6.0000    0    12.011   10.706690   -0.265331   -7.067645
  26 H     1.0000    0     1.008   10.792344   -1.522194   -8.701427
  27 H     1.0000    0     1.008   11.941065    1.359862   -7.373341
  28 H     1.0000    0     1.008   11.374591   -1.299018   -5.399862
  29 C     6.0000    0    12.011   -2.433226   -3.002699   -8.662348
  30 H     1.0000    0     1.008   -4.007278   -3.294992   -7.354008
  31 H     1.0000    0     1.008   -3.224031   -2.386935  -10.469205
  32 H     1.0000    0     1.008   -1.429182   -4.790565   -8.922577

--------------------------------
INTERNAL COORDINATES (ANGSTROEM)
--------------------------------
 N      0   0   0     0.000000000000     0.00000000     0.00000000
 C      1   0   0     1.457639126068     0.00000000     0.00000000
 C      2   1   0     1.543995369716   106.17517017     0.00000000
 O      3   2   1     1.241991115377   121.13787337   346.57590870
 C      2   1   3     1.569909688500   112.07710764   236.46435851
 C      5   2   1     1.513795634980   114.34279478   178.15576217
 C      6   5   2     1.422512454662   121.04273654   249.22466057
 C      7   6   5     1.392392466006   122.41777757   174.44464363
 C      8   7   6     1.468129220463   122.92098468   358.94448207
 C      9   8   7     1.449929367179   112.49826438     1.37760775
 C     10   9   8     1.403359005022   123.85796503   359.58645250
 H      1   2   3     1.013384229684   113.58996161    16.21246636
 H      2   1   3     1.094148901472   108.69965000   117.59087302
 H      5   2   1     1.097623953581   107.57916600    55.24618281
 H      5   2   1     1.098010009496   105.00979331   301.31054348
 H      7   6   5     1.095316855439   118.90574411   354.65886068
 O      8   7   6     1.391391613896   120.98936833   178.89577907
 O      9   8   7     1.265062694757   123.06278939   181.24673248
 H     10   9   8     1.089132207500   115.95688690   178.50473449
 H     11  10   9     1.091900987899   119.01622796   179.25585996
 C      1   2   3     1.358782771015   124.32193157   208.14216346
 N      3   2   1     1.356851101811   115.22362998   165.79498462
 H     17   8   7     0.964230827338   106.49634290   356.94452920
 H     22   3   2     1.018514214864   115.65948439    17.19298904
 O     21   1   2     1.234403510879   123.91286691   356.38485202
 C     22   3   2     1.458214815389   121.32896355   170.47232095
 H     26  22   3     1.091733181659   109.45371652    44.77518504
 H     26  22   3     1.092002219687   108.74546449   164.64399976
 H     26  22   3     1.096827587100   111.61041147   284.44669274
 C     21   1   2     1.531527572395   115.23632954   177.20689123
 H     30  21   1     1.094108528933   108.32873573   116.73349860
 H     30  21   1     1.093397303580   108.47337125   233.37750925
 H     30  21   1     1.093783119391   113.58080023   355.35499113

---------------------------
INTERNAL COORDINATES (A.U.)
---------------------------
 N      0   0   0     0.000000000000     0.00000000     0.00000000
 C      1   0   0     2.754538750356     0.00000000     0.00000000
 C      2   1   0     2.917728400805   106.17517017     0.00000000
 O      3   2   1     2.347023068826   121.13787337   346.57590870
 C      2   1   3     2.966699366255   112.07710764   236.46435851
 C      5   2   1     2.860659172838   114.34279478   178.15576217
 C      6   5   2     2.688158961404   121.04273654   249.22466057
 C      7   6   5     2.631240431687   122.41777757   174.44464363
 C      8   7   6     2.774362155883   122.92098468   358.94448207
 C      9   8   7     2.739969417499   112.49826438     1.37760775
 C     10   9   8     2.651964187064   123.85796503   359.58645250
 H      1   2   3     1.915018662538   113.58996161    16.21246636
 H      2   1   3     2.067641773512   108.69965000   117.59087302
 H      5   2   1     2.074208670299   107.57916600    55.24618281
 H      5   2   1     2.074938210252   105.00979331   301.31054348
 H      7   6   5     2.069848886648   118.90574411   354.65886068
 O      8   7   6     2.629349095298   120.98936833   178.89577907
 O      9   8   7     2.390622035332   123.06278939   181.24673248
 H     10   9   8     2.058161595809   115.95688690   178.50473449
 H     11  10   9     2.063393832487   119.01622796   179.25585996
 C      1   2   3     2.567727312708   124.32193157   208.14216346
 N      3   2   1     2.564076986931   115.22362998   165.79498462
 H     17   8   7     1.822132193554   106.49634290   356.94452920
 H     22   3   2     1.924712929598   115.65948439    17.19298904
 O     21   1   2     2.332684574312   123.91286691   356.38485202
 C     22   3   2     2.755626645512   121.32896355   170.47232095
 H     26  22   3     2.063076724651   109.45371652    44.77518504
 H     26  22   3     2.063585132842   108.74546449   164.64399976
 H     26  22   3     2.072703755748   111.61041147   284.44669274
 C     21   1   2     2.894167678376   115.23632954   177.20689123
 H     30  21   1     2.067565480470   108.32873573   116.73349860
 H     30  21   1     2.066221459334   108.47337125   233.37750925
 H     30  21   1     2.066950545555   113.58080023   355.35499113

---------------------
BASIS SET INFORMATION
---------------------
There are 4 groups of distinct atoms

 Group   1 Type N   : 11s6p2d1f contracted to 5s3p2d1f pattern {62111/411/11/1}
 Group   2 Type C   : 11s6p2d1f contracted to 5s3p2d1f pattern {62111/411/11/1}
 Group   3 Type O   : 11s6p2d1f contracted to 5s3p2d1f pattern {62111/411/11/1}
 Group   4 Type H   : 5s1p contracted to 3s1p pattern {311/1}

Atom   0N    basis set group =>   1
Atom   1C    basis set group =>   2
Atom   2C    basis set group =>   2
Atom   3O    basis set group =>   3
Atom   4C    basis set group =>   2
Atom   5C    basis set group =>   2
Atom   6C    basis set group =>   2
Atom   7C    basis set group =>   2
Atom   8C    basis set group =>   2
Atom   9C    basis set group =>   2
Atom  10C    basis set group =>   2
Atom  11H    basis set group =>   4
Atom  12H    basis set group =>   4
Atom  13H    basis set group =>   4
Atom  14H    basis set group =>   4
Atom  15H    basis set group =>   4
Atom  16O    basis set group =>   3
Atom  17O    basis set group =>   3
Atom  18H    basis set group =>   4
Atom  19H    basis set group =>   4
Atom  20C    basis set group =>   2
Atom  21N    basis set group =>   1
Atom  22H    basis set group =>   4
Atom  23H    basis set group =>   4
Atom  24O    basis set group =>   3
Atom  25C    basis set group =>   2
Atom  26H    basis set group =>   4
Atom  27H    basis set group =>   4
Atom  28H    basis set group =>   4
Atom  29C    basis set group =>   2
Atom  30H    basis set group =>   4
Atom  31H    basis set group =>   4
Atom  32H    basis set group =>   4
---------------------------------
AUXILIARY/J BASIS SET INFORMATION
---------------------------------
There are 4 groups of distinct atoms

 Group   1 Type N   : 12s5p4d2f1g contracted to 6s4p3d1f1g pattern {711111/2111/211/2/1}
 Group   2 Type C   : 12s5p4d2f1g contracted to 6s4p3d1f1g pattern {711111/2111/211/2/1}
 Group   3 Type O   : 12s5p4d2f1g contracted to 6s4p3d1f1g pattern {711111/2111/211/2/1}
 Group   4 Type H   : 5s2p1d contracted to 3s1p1d pattern {311/2/1}

Atom   0N    basis set group =>   1
Atom   1C    basis set group =>   2
Atom   2C    basis set group =>   2
Atom   3O    basis set group =>   3
Atom   4C    basis set group =>   2
Atom   5C    basis set group =>   2
Atom   6C    basis set group =>   2
Atom   7C    basis set group =>   2
Atom   8C    basis set group =>   2
Atom   9C    basis set group =>   2
Atom  10C    basis set group =>   2
Atom  11H    basis set group =>   4
Atom  12H    basis set group =>   4
Atom  13H    basis set group =>   4
Atom  14H    basis set group =>   4
Atom  15H    basis set group =>   4
Atom  16O    basis set group =>   3
Atom  17O    basis set group =>   3
Atom  18H    basis set group =>   4
Atom  19H    basis set group =>   4
Atom  20C    basis set group =>   2
Atom  21N    basis set group =>   1
Atom  22H    basis set group =>   4
Atom  23H    basis set group =>   4
Atom  24O    basis set group =>   3
Atom  25C    basis set group =>   2
Atom  26H    basis set group =>   4
Atom  27H    basis set group =>   4
Atom  28H    basis set group =>   4
Atom  29C    basis set group =>   2
Atom  30H    basis set group =>   4
Atom  31H    basis set group =>   4
Atom  32H    basis set group =>   4


           ************************************************************
           *        Program running with 16 parallel MPI-processes    *
           *              working on a common directory               *
           ************************************************************
------------------------------------------------------------------------------
                           ORCA GTO INTEGRAL CALCULATION
                           -- RI-GTO INTEGRALS CHOSEN --
------------------------------------------------------------------------------
------------------------------------------------------------------------------
                   ___                                                        
                  /   \      - P O W E R E D   B Y -                         
                 /     \                                                     
                 |  |  |   _    _      __       _____    __    __             
                 |  |  |  | |  | |    /  \     |  _  \  |  |  /  |          
                  \  \/   | |  | |   /    \    | | | |  |  | /  /          
                 / \  \   | |__| |  /  /\  \   | |_| |  |  |/  /          
                |  |  |   |  __  | /  /__\  \  |    /   |      \           
                |  |  |   | |  | | |   __   |  |    \   |  |\   \          
                \     /   | |  | | |  |  |  |  | |\  \  |  | \   \       
                 \___/    |_|  |_| |__|  |__|  |_| \__\ |__|  \__/        
                                                                              
                      - O R C A' S   B I G   F R I E N D -                    
                                      &                                       
                       - I N T E G R A L  F E E D E R -                       
                                                                              
 v1 FN, 2020, v2 2021                                                         
------------------------------------------------------------------------------


Reading SHARK input file freq.SHARKINP.tmp ... ok
----------------------
SHARK INTEGRAL PACKAGE
----------------------

Number of atoms                             ...     33
Number of basis functions                   ...    648
Number of shells                            ...    258
Maximum angular momentum                    ...      3
Integral batch strategy                     ... SHARK/LIBINT Hybrid
RI-J (if used) integral strategy            ... SPLIT-RIJ (Revised 2003 algorithm where possible)
Printlevel                                  ...      1
Contraction scheme used                     ... SEGMENTED contraction
Coulomb Range Separation                    ... NOT USED
Exchange Range Separation                   ... NOT USED
Finite Nucleus Model                        ... NOT USED
Auxiliary Coulomb fitting basis             ... AVAILABLE
   # of basis functions in Aux-J            ...   1047
   # of shells in Aux-J                     ...    345
   Maximum angular momentum in Aux-J        ...      4
Auxiliary J/K fitting basis                 ... NOT available
Auxiliary Correlation fitting basis         ... NOT available
Auxiliary 'external' fitting basis          ... NOT available
Integral threshold                          ...     2.500000e-11
Primitive cut-off                           ...     2.500000e-12
Primitive pair pre-selection threshold      ...     2.500000e-12

Calculating pre-screening integrals         ... done (  0.0 sec) Dimension = 258
Organizing shell pair data                  ... done (  0.1 sec)
Shell pair information
Total number of shell pairs                 ...     33411
Shell pairs after pre-screening             ...     24652
Total number of primitive shell pairs       ...    101916
Primitive shell pairs kept                  ...     51037
          la=0 lb=0:   6584 shell pairs
          la=1 lb=0:   7133 shell pairs
          la=1 lb=1:   1958 shell pairs
          la=2 lb=0:   3476 shell pairs
          la=2 lb=1:   1901 shell pairs
          la=2 lb=2:    481 shell pairs
          la=3 lb=0:   1639 shell pairs
          la=3 lb=1:    927 shell pairs
          la=3 lb=2:    439 shell pairs
          la=3 lb=3:    114 shell pairs

Calculating one electron integrals          ... done (  0.0 sec)
Calculating RI/J V-Matrix + Cholesky decomp.... done (  0.1 sec)
Calculating Nuclear repulsion               ... done (  0.0 sec) ENN=   1313.788666563631 Eh

SHARK setup successfully completed in   0.5 seconds

Maximum memory used throughout the entire GTOINT-calculation: 38.8 MB


           ************************************************************
           *        Program running with 16 parallel MPI-processes    *
           *              working on a common directory               *
           ************************************************************
-------------------------------------------------------------------------------
                                 ORCA SCF
-------------------------------------------------------------------------------

------------
SCF SETTINGS
------------
Hamiltonian:
 Density Functional     Method          .... DFT(GTOs)
 Exchange Functional    Exchange        .... M062X
 Correlation Functional Correlation     .... M062X
 Gradients option       PostSCFGGA      .... off
 Hybrid DFT is turned on
   Fraction HF Exchange ScalHFX         ....  0.540000
   Scaling of DF-GGA-X  ScalDFX         ....  0.460000
   Scaling of DF-GGA-C  ScalDFC         ....  1.000000
   Scaling of DF-LDA-C  ScalLDAC        ....  1.000000
   Perturbative correction              ....  0.000000
   Density functional embedding theory  .... OFF
 RI-approximation to the Coulomb term is turned on
   Number of AuxJ basis functions       .... 1047
   RIJ-COSX (HFX calculated with COS-X)).... on


General Settings:
 Integral files         IntName         .... freq
 Hartree-Fock type      HFTyp           .... RHF
 Total Charge           Charge          ....   -1
 Multiplicity           Mult            ....    1
 Number of Electrons    NEL             ....  134
 Basis Dimension        Dim             ....  648
 Nuclear Repulsion      ENuc            ....   1313.7886665636 Eh

Convergence Acceleration:
 DIIS                   CNVDIIS         .... on
   Start iteration      DIISMaxIt       ....    12
   Startup error        DIISStart       ....  0.200000
   # of expansion vecs  DIISMaxEq       ....     5
   Bias factor          DIISBfac        ....   1.050
   Max. coefficient     DIISMaxC        ....  10.000
 Trust-Rad. Augm. Hess. CNVTRAH         .... auto
   Auto Start mean grad. ratio tolernc. ....  1.125000
   Auto Start start iteration           ....    20
   Auto Start num. interpolation iter.  ....    10
   Max. Number of Micro iterations      ....    16
   Max. Number of Macro iterations      .... Maxiter - #DIIS iter
   Number of Davidson start vectors     ....     2
   Converg. threshold I  (grad. norm)   ....   1.000e-05
   Converg. threshold II (energy diff.) ....   1.000e-08
   Grad. Scal. Fac. for Micro threshold ....   0.100
   Minimum threshold for Micro iter.    ....   0.010
   NR start threshold (gradient norm)   ....   0.001
   Initial trust radius                 ....   0.400
   Minimum AH scaling param. (alpha)    ....   1.000
   Maximum AH scaling param. (alpha)    .... 1000.000
   Orbital update algorithm             .... Taylor
   White noise on init. David. guess    .... on
   Maximum white noise                  ....   0.010
   Quad. conv. algorithm                .... NR
 SOSCF                  CNVSOSCF        .... on
   Start iteration      SOSCFMaxIt      ....   150
   Startup grad/error   SOSCFStart      ....  0.003300
 Level Shifting         CNVShift        .... on
   Level shift para.    LevelShift      ....    0.2500
   Turn off err/grad.   ShiftErr        ....    0.0010
 Zerner damping         CNVZerner       .... off
 Static damping         CNVDamp         .... on
   Fraction old density DampFac         ....    0.7000
   Max. Damping (<1)    DampMax         ....    0.9800
   Min. Damping (>=0)   DampMin         ....    0.0000
   Turn off err/grad.   DampErr         ....    0.1000
 Fernandez-Rico         CNVRico         .... off

SCF Procedure:
 Maximum # iterations   MaxIter         ....   125
 SCF integral mode      SCFMode         .... Direct
   Integral package                     .... SHARK and LIBINT hybrid scheme
 Reset frequency        DirectResetFreq ....    20
 Integral Threshold     Thresh          ....  2.500e-11 Eh
 Primitive CutOff       TCut            ....  2.500e-12 Eh

Convergence Tolerance:
 Convergence Check Mode ConvCheckMode   .... Total+1el-Energy
 Convergence forced     ConvForced      .... 0
 Energy Change          TolE            ....  1.000e-08 Eh
 1-El. energy change                    ....  1.000e-05 Eh
 Orbital Gradient       TolG            ....  1.000e-05
 Orbital Rotation angle TolX            ....  1.000e-05
 DIIS Error             TolErr          ....  5.000e-07


Diagonalization of the overlap matrix:
Smallest eigenvalue                        ... 1.069e-05
Time for diagonalization                   ...    0.054 sec
Threshold for overlap eigenvalues          ... 1.000e-08
Number of eigenvalues below threshold      ... 0
Time for construction of square roots      ...    0.034 sec
Total time needed                          ...    0.091 sec

Time for model grid setup =    0.147 sec

------------------------------
INITIAL GUESS: MODEL POTENTIAL
------------------------------
Loading Hartree-Fock densities                     ... done
Calculating cut-offs                               ... done
Initializing the effective Hamiltonian             ... done
Setting up the integral package (SHARK)            ... done
Starting the Coulomb interaction                   ... done (   0.1 sec)
Reading the grid                                   ... done
Mapping shells                                     ... done
Starting the XC term evaluation                    ... done (   0.1 sec)
  promolecular density results
     # of electrons  =    132.992572885
     EX              =   -111.435791273
     EC              =     -4.458118203
     EX+EC           =   -115.893909476
Transforming the Hamiltonian                       ... done (   0.0 sec)
Diagonalizing the Hamiltonian                      ... done (   0.1 sec)
Back transforming the eigenvectors                 ... done (   0.0 sec)
Now organizing SCF variables                       ... done
                      ------------------
                      INITIAL GUESS DONE (   0.6 sec)
                      ------------------
-------------------
DFT GRID GENERATION
-------------------

General Integration Accuracy     IntAcc      ... 4.388
Radial Grid Type                 RadialGrid  ... OptM3 with GC (2021)
Angular Grid (max. ang.)         AngularGrid ... 4 (Lebedev-302)
Angular grid pruning method      GridPruning ... 4 (adaptive)
Weight generation scheme         WeightScheme... Becke
Basis function cutoff            BFCut       ... 1.0000e-11
Integration weight cutoff        WCut        ... 1.0000e-14
Angular grids for H and He will be reduced by one unit
Partially contracted basis set               ... off
Rotationally invariant grid construction     ... off

Total number of grid points                  ...   155799
Total number of batches                      ...     2453
Average number of points per batch           ...       63
Average number of grid points per atom       ...     4721
Time for grid setup =    0.720 sec

--------------------
COSX GRID GENERATION
--------------------

GRIDX 1
-------
General Integration Accuracy     IntAcc      ... 3.816
Radial Grid Type                 RadialGrid  ... OptM3 with GC (2021)
Angular Grid (max. ang.)         AngularGrid ... 1 (Lebedev-50)
Angular grid pruning method      GridPruning ... 4 (adaptive)
Weight generation scheme         WeightScheme... Becke
Basis function cutoff            BFCut       ... 1.0000e-11
Integration weight cutoff        WCut        ... 1.0000e-14
Angular grids for H and He will be reduced by one unit
Partially contracted basis set               ... on
Rotationally invariant grid construction     ... off

Total number of grid points                  ...    19819
Total number of batches                      ...      328
Average number of points per batch           ...       60
Average number of grid points per atom       ...      601
UseSFitting                                  ... on

GRIDX 2
-------
General Integration Accuracy     IntAcc      ... 4.020
Radial Grid Type                 RadialGrid  ... OptM3 with GC (2021)
Angular Grid (max. ang.)         AngularGrid ... 2 (Lebedev-110)
Angular grid pruning method      GridPruning ... 4 (adaptive)
Weight generation scheme         WeightScheme... Becke
Basis function cutoff            BFCut       ... 1.0000e-11
Integration weight cutoff        WCut        ... 1.0000e-14
Angular grids for H and He will be reduced by one unit
Partially contracted basis set               ... on
Rotationally invariant grid construction     ... off

Total number of grid points                  ...    43006
Total number of batches                      ...      689
Average number of points per batch           ...       62
Average number of grid points per atom       ...     1303
UseSFitting                                  ... on

GRIDX 3
-------
General Integration Accuracy     IntAcc      ... 4.338
Radial Grid Type                 RadialGrid  ... OptM3 with GC (2021)
Angular Grid (max. ang.)         AngularGrid ... 3 (Lebedev-194)
Angular grid pruning method      GridPruning ... 4 (adaptive)
Weight generation scheme         WeightScheme... Becke
Basis function cutoff            BFCut       ... 1.0000e-11
Integration weight cutoff        WCut        ... 1.0000e-14
Angular grids for H and He will be reduced by one unit
Partially contracted basis set               ... on
Rotationally invariant grid construction     ... off

Total number of grid points                  ...    94026
Total number of batches                      ...     1484
Average number of points per batch           ...       63
Average number of grid points per atom       ...     2849
UseSFitting                                  ... on

Time for X-Grid setup             =    1.013 sec

--------------
SCF ITERATIONS
--------------
ITER       Energy         Delta-E        Max-DP      RMS-DP      [F,P]     Damp
               ***  Starting incremental Fock matrix formation  ***
  0   -876.1106053958   0.000000000000 0.53775140  0.00247239  0.3330248 0.7000
  1   -876.4039789619  -0.293373566096 0.50100474  0.00224942  0.1535877 0.7000
                               ***Turning on DIIS***
  2   -876.5349091414  -0.130930179416 0.61240172  0.00312421  0.0527150 0.0000
  3   -876.7438477859  -0.208938644530 0.52977973  0.00226777  0.0863220 0.0000
  4   -876.7818927293  -0.038044943419 0.11791299  0.00052070  0.0113045 0.0000
  5   -876.7834718637  -0.001579134425 0.06178645  0.00026496  0.0066544 0.0000
                      *** Initiating the SOSCF procedure ***
                           *** Shutting down DIIS ***
                      *** Re-Reading the Fockian *** 
                      *** Removing any level shift *** 
ITER      Energy       Delta-E        Grad      Rot      Max-DP    RMS-DP
  6   -876.78368516  -0.0002132935  0.000625  0.000625  0.024854  0.000108
               *** Restarting incremental Fock matrix formation ***
  7   -876.78377011  -0.0000849515  0.000429  0.001694  0.017616  0.000086
  8   -876.78378086  -0.0000107466  0.000227  0.001322  0.010730  0.000051
  9   -876.78378395  -0.0000030952  0.000113  0.000345  0.002790  0.000021
 10   -876.78378488  -0.0000009262  0.000041  0.000063  0.001703  0.000009
 11   -876.78378494  -0.0000000634  0.000026  0.000067  0.001185  0.000006
 12   -876.78378501  -0.0000000693  0.000007  0.000030  0.000107  0.000001
 13   -876.78378501  -0.0000000055  0.000010  0.000017  0.000024  0.000000
                  ***Gradient check signals convergence***
              ***Rediagonalizing the Fockian in SOSCF/NRSCF***

               *****************************************************
               *                     SUCCESS                       *
               *           SCF CONVERGED AFTER  14 CYCLES          *
               *****************************************************

Old exchange energy                            =    -61.478714963 Eh
New exchange energy                            =    -61.478679657 Eh
Exchange energy change after final integration =      0.000035306 Eh
Total energy after final integration           =   -876.783749704 Eh
Final COS-X integration done in                =     6.370 sec

----------------
TOTAL SCF ENERGY
----------------

Total Energy       :         -876.78374970 Eh          -23858.49877 eV

Components:
Nuclear Repulsion  :         1313.78866656 Eh           35750.00711 eV
Electronic Energy  :        -2190.57241627 Eh          -59608.50588 eV
One Electron Energy:        -3820.95923543 Eh         -103973.58671 eV
Two Electron Energy:         1630.38681917 Eh           44365.08083 eV
Max COSX asymmetry :            0.00000803 Eh               0.00022 eV

Virial components:
Potential Energy   :        -1748.84735862 Eh          -47588.55598 eV
Kinetic Energy     :          872.06360892 Eh           23730.05721 eV
Virial Ratio       :            2.00541261


DFT components:
N(Alpha)           :       66.999977009903 electrons
N(Beta)            :       66.999977009903 electrons
N(Total)           :      133.999954019805 electrons
E(XC)              :      -57.368013204292 Eh       
DFET-embed. en.    :        0.000000000000 Eh       

---------------
SCF CONVERGENCE
---------------

  Last Energy change         ...    4.1593e-09  Tolerance :   1.0000e-08
  Last MAX-Density change    ...    1.8874e-15  Tolerance :   1.0000e-07
  Last RMS-Density change    ...    1.4937e-17  Tolerance :   5.0000e-09
  Last Orbital Gradient      ...    8.5907e-07  Tolerance :   1.0000e-05
  Last Orbital Rotation      ...    2.7656e-06  Tolerance :   1.0000e-05

             **** THE GBW FILE WAS UPDATED (freq.gbw) ****
             **** DENSITY freq.scfp WAS UPDATED ****
             **** ENERGY FILE WAS UPDATED (freq.en.tmp) ****
             **** THE GBW FILE WAS UPDATED (freq.gbw) ****
             **** DENSITY freq.scfp WAS UPDATED ****
----------------
ORBITAL ENERGIES
----------------

  NO   OCC          E(Eh)            E(eV) 
   0   2.0000     -19.511285      -530.9290 
   1   2.0000     -19.505012      -530.7584 
   2   2.0000     -19.498868      -530.5912 
   3   2.0000     -19.392365      -527.6931 
   4   2.0000     -14.678213      -399.4145 
   5   2.0000     -14.671077      -399.2203 
   6   2.0000     -10.557121      -287.2739 
   7   2.0000     -10.550534      -287.0946 
   8   2.0000     -10.489031      -285.4210 
   9   2.0000     -10.472646      -284.9752 
  10   2.0000     -10.464918      -284.7649 
  11   2.0000     -10.446046      -284.2514 
  12   2.0000     -10.436560      -283.9932 
  13   2.0000     -10.435640      -283.9682 
  14   2.0000     -10.405690      -283.1532 
  15   2.0000     -10.401530      -283.0400 
  16   2.0000     -10.400822      -283.0208 
  17   2.0000     -10.379072      -282.4289 
  18   2.0000      -1.065546       -28.9950 
  19   2.0000      -1.057055       -28.7639 
  20   2.0000      -1.032952       -28.1081 
  21   2.0000      -0.937989       -25.5240 
  22   2.0000      -0.930583       -25.3224 
  23   2.0000      -0.928448       -25.2644 
  24   2.0000      -0.806745       -21.9527 
  25   2.0000      -0.773415       -21.0457 
  26   2.0000      -0.736393       -20.0383 
  27   2.0000      -0.704955       -19.1828 
  28   2.0000      -0.685018       -18.6403 
  29   2.0000      -0.664956       -18.0944 
  30   2.0000      -0.612817       -16.6756 
  31   2.0000      -0.574534       -15.6339 
  32   2.0000      -0.558587       -15.1999 
  33   2.0000      -0.553652       -15.0656 
  34   2.0000      -0.519346       -14.1321 
  35   2.0000      -0.504879       -13.7385 
  36   2.0000      -0.468088       -12.7373 
  37   2.0000      -0.463590       -12.6149 
  38   2.0000      -0.456658       -12.4263 
  39   2.0000      -0.441004       -12.0003 
  40   2.0000      -0.432477       -11.7683 
  41   2.0000      -0.426059       -11.5937 
  42   2.0000      -0.412497       -11.2246 
  43   2.0000      -0.397969       -10.8293 
  44   2.0000      -0.395139       -10.7523 
  45   2.0000      -0.388198       -10.5634 
  46   2.0000      -0.379012       -10.3134 
  47   2.0000      -0.370477       -10.0812 
  48   2.0000      -0.362641        -9.8680 
  49   2.0000      -0.354281        -9.6405 
  50   2.0000      -0.347555        -9.4574 
  51   2.0000      -0.345874        -9.4117 
  52   2.0000      -0.339848        -9.2477 
  53   2.0000      -0.325666        -8.8618 
  54   2.0000      -0.315734        -8.5916 
  55   2.0000      -0.309729        -8.4282 
  56   2.0000      -0.275743        -7.5034 
  57   2.0000      -0.271734        -7.3942 
  58   2.0000      -0.265240        -7.2175 
  59   2.0000      -0.246749        -6.7144 
  60   2.0000      -0.242736        -6.6052 
  61   2.0000      -0.238484        -6.4895 
  62   2.0000      -0.219502        -5.9730 
  63   2.0000      -0.218162        -5.9365 
  64   2.0000      -0.151421        -4.1204 
  65   2.0000      -0.136189        -3.7059 
  66   2.0000      -0.072460        -1.9717 
  67   0.0000       0.140612         3.8262 
  68   0.0000       0.147103         4.0029 
  69   0.0000       0.151491         4.1223 
  70   0.0000       0.164907         4.4873 
  71   0.0000       0.170346         4.6354 
  72   0.0000       0.180968         4.9244 
  73   0.0000       0.187728         5.1083 
  74   0.0000       0.190969         5.1965 
  75   0.0000       0.200478         5.4553 
  76   0.0000       0.204840         5.5740 
  77   0.0000       0.217308         5.9133 
  78   0.0000       0.223832         6.0908 
  79   0.0000       0.231427         6.2974 
  80   0.0000       0.234044         6.3687 
  81   0.0000       0.239322         6.5123 
  82   0.0000       0.243048         6.6137 
  83   0.0000       0.253023         6.8851 
  84   0.0000       0.263987         7.1835 
  85   0.0000       0.274053         7.4574 
  86   0.0000       0.281956         7.6724 
  87   0.0000       0.284801         7.7498 
  88   0.0000       0.290682         7.9099 
  89   0.0000       0.302657         8.2357 
  90   0.0000       0.311114         8.4658 
  91   0.0000       0.316305         8.6071 
  92   0.0000       0.327824         8.9205 
  93   0.0000       0.329367         8.9625 
  94   0.0000       0.333150         9.0655 
  95   0.0000       0.341817         9.3013 
  96   0.0000       0.342994         9.3333 
  97   0.0000       0.346182         9.4201 
  98   0.0000       0.354260         9.6399 
  99   0.0000       0.363466         9.8904 
 100   0.0000       0.367229         9.9928 
 101   0.0000       0.375389        10.2149 
 102   0.0000       0.382549        10.4097 
 103   0.0000       0.391989        10.6666 
 104   0.0000       0.399125        10.8607 
 105   0.0000       0.404738        11.0135 
 106   0.0000       0.412716        11.2306 
 107   0.0000       0.422313        11.4917 
 108   0.0000       0.437780        11.9126 
 109   0.0000       0.441185        12.0053 
 110   0.0000       0.444621        12.0988 
 111   0.0000       0.452073        12.3015 
 112   0.0000       0.452627        12.3166 
 113   0.0000       0.468651        12.7526 
 114   0.0000       0.472374        12.8539 
 115   0.0000       0.475966        12.9517 
 116   0.0000       0.481368        13.0987 
 117   0.0000       0.488527        13.2935 
 118   0.0000       0.496871        13.5205 
 119   0.0000       0.501717        13.6524 
 120   0.0000       0.503887        13.7115 
 121   0.0000       0.510647        13.8954 
 122   0.0000       0.513703        13.9786 
 123   0.0000       0.518012        14.0958 
 124   0.0000       0.521495        14.1906 
 125   0.0000       0.523705        14.2507 
 126   0.0000       0.526977        14.3398 
 127   0.0000       0.531956        14.4753 
 128   0.0000       0.536304        14.5936 
 129   0.0000       0.542309        14.7570 
 130   0.0000       0.548497        14.9254 
 131   0.0000       0.553582        15.0637 
 132   0.0000       0.556505        15.1433 
 133   0.0000       0.561083        15.2678 
 134   0.0000       0.566747        15.4220 
 135   0.0000       0.570810        15.5325 
 136   0.0000       0.583202        15.8697 
 137   0.0000       0.586883        15.9699 
 138   0.0000       0.588874        16.0241 
 139   0.0000       0.593383        16.1468 
 140   0.0000       0.597488        16.2585 
 141   0.0000       0.606702        16.5092 
 142   0.0000       0.607101        16.5200 
 143   0.0000       0.613401        16.6915 
 144   0.0000       0.626076        17.0364 
 145   0.0000       0.629576        17.1316 
 146   0.0000       0.638500        17.3745 
 147   0.0000       0.642339        17.4789 
 148   0.0000       0.650237        17.6939 
 149   0.0000       0.656579        17.8664 
 150   0.0000       0.658887        17.9292 
 151   0.0000       0.666511        18.1367 
 152   0.0000       0.674952        18.3664 
 153   0.0000       0.676714        18.4143 
 154   0.0000       0.680509        18.5176 
 155   0.0000       0.685225        18.6459 
 156   0.0000       0.690586        18.7918 
 157   0.0000       0.694621        18.9016 
 158   0.0000       0.698816        19.0157 
 159   0.0000       0.703398        19.1404 
 160   0.0000       0.710905        19.3447 
 161   0.0000       0.718596        19.5540 
 162   0.0000       0.727054        19.7841 
 163   0.0000       0.734871        19.9969 
 164   0.0000       0.743085        20.2204 
 165   0.0000       0.749944        20.4070 
 166   0.0000       0.758184        20.6312 
 167   0.0000       0.763511        20.7762 
 168   0.0000       0.772768        21.0281 
 169   0.0000       0.777756        21.1638 
 170   0.0000       0.786563        21.4035 
 171   0.0000       0.797164        21.6919 
 172   0.0000       0.804485        21.8912 
 173   0.0000       0.814330        22.1591 
 174   0.0000       0.824509        22.4360 
 175   0.0000       0.833493        22.6805 
 176   0.0000       0.839809        22.8524 
 177   0.0000       0.850443        23.1417 
 178   0.0000       0.853864        23.2348 
 179   0.0000       0.865785        23.5592 
 180   0.0000       0.877388        23.8749 
 181   0.0000       0.886409        24.1204 
 182   0.0000       0.893009        24.3000 
 183   0.0000       0.902788        24.5661 
 184   0.0000       0.910965        24.7886 
 185   0.0000       0.917377        24.9631 
 186   0.0000       0.932739        25.3811 
 187   0.0000       0.946371        25.7521 
 188   0.0000       0.954535        25.9742 
 189   0.0000       0.962877        26.2012 
 190   0.0000       0.970917        26.4200 
 191   0.0000       0.974196        26.5092 
 192   0.0000       0.994453        27.0604 
 193   0.0000       0.998352        27.1665 
 194   0.0000       1.004354        27.3299 
 195   0.0000       1.015797        27.6413 
 196   0.0000       1.022312        27.8185 
 197   0.0000       1.031216        28.0608 
 198   0.0000       1.036900        28.2155 
 199   0.0000       1.041090        28.3295 
 200   0.0000       1.045588        28.4519 
 201   0.0000       1.051265        28.6064 
 202   0.0000       1.054955        28.7068 
 203   0.0000       1.067746        29.0548 
 204   0.0000       1.082515        29.4567 
 205   0.0000       1.088909        29.6307 
 206   0.0000       1.096720        29.8433 
 207   0.0000       1.106298        30.1039 
 208   0.0000       1.110850        30.2278 
 209   0.0000       1.122575        30.5468 
 210   0.0000       1.125513        30.6268 
 211   0.0000       1.143837        31.1254 
 212   0.0000       1.148783        31.2600 
 213   0.0000       1.159754        31.5585 
 214   0.0000       1.170055        31.8388 
 215   0.0000       1.179884        32.1063 
 216   0.0000       1.194460        32.5029 
 217   0.0000       1.208461        32.8839 
 218   0.0000       1.229466        33.4555 
 219   0.0000       1.236675        33.6516 
 220   0.0000       1.243982        33.8505 
 221   0.0000       1.251607        34.0580 
 222   0.0000       1.254255        34.1300 
 223   0.0000       1.267425        34.4884 
 224   0.0000       1.282927        34.9102 
 225   0.0000       1.292915        35.1820 
 226   0.0000       1.311081        35.6763 
 227   0.0000       1.324248        36.0346 
 228   0.0000       1.331936        36.2438 
 229   0.0000       1.345757        36.6199 
 230   0.0000       1.375297        37.4237 
 231   0.0000       1.379224        37.5306 
 232   0.0000       1.392573        37.8938 
 233   0.0000       1.404060        38.2064 
 234   0.0000       1.410100        38.3708 
 235   0.0000       1.424844        38.7720 
 236   0.0000       1.435104        39.0512 
 237   0.0000       1.445166        39.3250 
 238   0.0000       1.452222        39.5170 
 239   0.0000       1.456472        39.6326 
 240   0.0000       1.471385        40.0384 
 241   0.0000       1.480443        40.2849 
 242   0.0000       1.490622        40.5619 
 243   0.0000       1.506932        41.0057 
 244   0.0000       1.520282        41.3690 
 245   0.0000       1.529104        41.6090 
 246   0.0000       1.537698        41.8429 
 247   0.0000       1.544159        42.0187 
 248   0.0000       1.563418        42.5428 
 249   0.0000       1.567713        42.6597 
 250   0.0000       1.574285        42.8385 
 251   0.0000       1.586434        43.1691 
 252   0.0000       1.601986        43.5923 
 253   0.0000       1.604303        43.6553 
 254   0.0000       1.615202        43.9519 
 255   0.0000       1.626042        44.2469 
 256   0.0000       1.636001        44.5179 
 257   0.0000       1.647320        44.8259 
 258   0.0000       1.652022        44.9538 
 259   0.0000       1.661042        45.1993 
 260   0.0000       1.662614        45.2420 
 261   0.0000       1.669981        45.4425 
 262   0.0000       1.673088        45.5270 
 263   0.0000       1.680500        45.7287 
 264   0.0000       1.689145        45.9640 
 265   0.0000       1.690119        45.9905 
 266   0.0000       1.697647        46.1953 
 267   0.0000       1.704668        46.3864 
 268   0.0000       1.724669        46.9306 
 269   0.0000       1.728632        47.0385 
 270   0.0000       1.736153        47.2431 
 271   0.0000       1.747682        47.5568 
 272   0.0000       1.753039        47.7026 
 273   0.0000       1.759002        47.8649 
 274   0.0000       1.767701        48.1016 
 275   0.0000       1.776984        48.3542 
 276   0.0000       1.783423        48.5294 
 277   0.0000       1.796616        48.8884 
 278   0.0000       1.801413        49.0189 
 279   0.0000       1.809311        49.2339 
 280   0.0000       1.816481        49.4290 
 281   0.0000       1.836033        49.9610 
 282   0.0000       1.847610        50.2760 
 283   0.0000       1.857569        50.5470 
 284   0.0000       1.864817        50.7442 
 285   0.0000       1.872005        50.9398 
 286   0.0000       1.879939        51.1557 
 287   0.0000       1.904549        51.8254 
 288   0.0000       1.911548        52.0159 
 289   0.0000       1.917127        52.1677 
 290   0.0000       1.925145        52.3858 
 291   0.0000       1.940772        52.8111 
 292   0.0000       1.953293        53.1518 
 293   0.0000       1.957882        53.2767 
 294   0.0000       1.973425        53.6996 
 295   0.0000       1.983387        53.9707 
 296   0.0000       1.989882        54.1474 
 297   0.0000       2.004541        54.5463 
 298   0.0000       2.005349        54.5683 
 299   0.0000       2.014977        54.8303 
 300   0.0000       2.031942        55.2919 
 301   0.0000       2.033461        55.3333 
 302   0.0000       2.045793        55.6689 
 303   0.0000       2.060711        56.0748 
 304   0.0000       2.074847        56.4595 
 305   0.0000       2.083307        56.6897 
 306   0.0000       2.090105        56.8746 
 307   0.0000       2.101636        57.1884 
 308   0.0000       2.103323        57.2343 
 309   0.0000       2.105603        57.2964 
 310   0.0000       2.120320        57.6968 
 311   0.0000       2.128588        57.9218 
 312   0.0000       2.149603        58.4937 
 313   0.0000       2.149756        58.4978 
 314   0.0000       2.167816        58.9893 
 315   0.0000       2.175151        59.1889 
 316   0.0000       2.179707        59.3128 
 317   0.0000       2.191996        59.6473 
 318   0.0000       2.201158        59.8966 
 319   0.0000       2.213198        60.2242 
 320   0.0000       2.223583        60.5068 
 321   0.0000       2.236728        60.8645 
 322   0.0000       2.243783        61.0565 
 323   0.0000       2.254985        61.3613 
 324   0.0000       2.271372        61.8072 
 325   0.0000       2.281545        62.0840 
 326   0.0000       2.303354        62.6774 
 327   0.0000       2.307945        62.8024 
 328   0.0000       2.312600        62.9291 
 329   0.0000       2.326770        63.3146 
 330   0.0000       2.331533        63.4443 
 331   0.0000       2.337543        63.6078 
 332   0.0000       2.342551        63.7441 
 333   0.0000       2.353889        64.0526 
 334   0.0000       2.381285        64.7981 
 335   0.0000       2.387393        64.9643 
 336   0.0000       2.391305        65.0707 
 337   0.0000       2.407116        65.5010 
 338   0.0000       2.417180        65.7748 
 339   0.0000       2.431197        66.1562 
 340   0.0000       2.436810        66.3090 
 341   0.0000       2.441930        66.4483 
 342   0.0000       2.444651        66.5223 
 343   0.0000       2.448034        66.6144 
 344   0.0000       2.466636        67.1206 
 345   0.0000       2.479589        67.4730 
 346   0.0000       2.484230        67.5993 
 347   0.0000       2.488486        67.7151 
 348   0.0000       2.491260        67.7906 
 349   0.0000       2.497580        67.9626 
 350   0.0000       2.518595        68.5344 
 351   0.0000       2.541148        69.1482 
 352   0.0000       2.549594        69.3780 
 353   0.0000       2.577316        70.1323 
 354   0.0000       2.587975        70.4224 
 355   0.0000       2.595614        70.6302 
 356   0.0000       2.600597        70.7658 
 357   0.0000       2.627426        71.4959 
 358   0.0000       2.634086        71.6771 
 359   0.0000       2.637271        71.7638 
 360   0.0000       2.644769        71.9678 
 361   0.0000       2.651283        72.1451 
 362   0.0000       2.659829        72.3776 
 363   0.0000       2.667370        72.5828 
 364   0.0000       2.677199        72.8503 
 365   0.0000       2.692374        73.2632 
 366   0.0000       2.705100        73.6095 
 367   0.0000       2.715017        73.8794 
 368   0.0000       2.719512        74.0017 
 369   0.0000       2.734896        74.4203 
 370   0.0000       2.743860        74.6642 
 371   0.0000       2.756917        75.0195 
 372   0.0000       2.758331        75.0580 
 373   0.0000       2.766919        75.2917 
 374   0.0000       2.777895        75.5904 
 375   0.0000       2.799732        76.1846 
 376   0.0000       2.807199        76.3878 
 377   0.0000       2.817032        76.6553 
 378   0.0000       2.817654        76.6723 
 379   0.0000       2.836285        77.1793 
 380   0.0000       2.839525        77.2674 
 381   0.0000       2.847588        77.4868 
 382   0.0000       2.856621        77.7326 
 383   0.0000       2.866470        78.0006 
 384   0.0000       2.870152        78.1008 
 385   0.0000       2.880548        78.3837 
 386   0.0000       2.891647        78.6857 
 387   0.0000       2.912293        79.2475 
 388   0.0000       2.928075        79.6770 
 389   0.0000       2.935004        79.8655 
 390   0.0000       2.939849        79.9973 
 391   0.0000       2.946053        80.1662 
 392   0.0000       2.956894        80.4612 
 393   0.0000       2.966788        80.7304 
 394   0.0000       2.976347        80.9905 
 395   0.0000       2.989397        81.3456 
 396   0.0000       3.007208        81.8303 
 397   0.0000       3.013497        82.0014 
 398   0.0000       3.017180        82.1016 
 399   0.0000       3.035039        82.5876 
 400   0.0000       3.043586        82.8202 
 401   0.0000       3.045924        82.8838 
 402   0.0000       3.055836        83.1535 
 403   0.0000       3.070076        83.5410 
 404   0.0000       3.075531        83.6894 
 405   0.0000       3.083670        83.9109 
 406   0.0000       3.096192        84.2517 
 407   0.0000       3.103378        84.4472 
 408   0.0000       3.105013        84.4917 
 409   0.0000       3.114199        84.7417 
 410   0.0000       3.120974        84.9260 
 411   0.0000       3.128477        85.1302 
 412   0.0000       3.152515        85.7843 
 413   0.0000       3.156748        85.8995 
 414   0.0000       3.173174        86.3465 
 415   0.0000       3.182197        86.5920 
 416   0.0000       3.190980        86.8310 
 417   0.0000       3.201308        87.1120 
 418   0.0000       3.209316        87.3299 
 419   0.0000       3.215504        87.4983 
 420   0.0000       3.217460        87.5515 
 421   0.0000       3.223288        87.7101 
 422   0.0000       3.227481        87.8242 
 423   0.0000       3.238743        88.1307 
 424   0.0000       3.246058        88.3297 
 425   0.0000       3.253758        88.5392 
 426   0.0000       3.265716        88.8647 
 427   0.0000       3.273961        89.0890 
 428   0.0000       3.276516        89.1585 
 429   0.0000       3.286771        89.4376 
 430   0.0000       3.298331        89.7521 
 431   0.0000       3.303447        89.8913 
 432   0.0000       3.313087        90.1537 
 433   0.0000       3.329211        90.5924 
 434   0.0000       3.335180        90.7549 
 435   0.0000       3.340207        90.8916 
 436   0.0000       3.342402        90.9514 
 437   0.0000       3.351015        91.1858 
 438   0.0000       3.362625        91.5017 
 439   0.0000       3.372724        91.7765 
 440   0.0000       3.382608        92.0454 
 441   0.0000       3.389309        92.2278 
 442   0.0000       3.400698        92.5377 
 443   0.0000       3.404022        92.6282 
 444   0.0000       3.411758        92.8386 
 445   0.0000       3.418179        93.0134 
 446   0.0000       3.421317        93.0988 
 447   0.0000       3.431418        93.3736 
 448   0.0000       3.436340        93.5076 
 449   0.0000       3.441225        93.6405 
 450   0.0000       3.452625        93.9507 
 451   0.0000       3.456893        94.0668 
 452   0.0000       3.461346        94.1880 
 453   0.0000       3.479167        94.6729 
 454   0.0000       3.492995        95.0492 
 455   0.0000       3.496509        95.1449 
 456   0.0000       3.510220        95.5179 
 457   0.0000       3.513554        95.6087 
 458   0.0000       3.514962        95.6470 
 459   0.0000       3.531956        96.1094 
 460   0.0000       3.537967        96.2730 
 461   0.0000       3.542025        96.3834 
 462   0.0000       3.555632        96.7537 
 463   0.0000       3.567448        97.0752 
 464   0.0000       3.569049        97.1188 
 465   0.0000       3.586585        97.5959 
 466   0.0000       3.590429        97.7006 
 467   0.0000       3.596851        97.8753 
 468   0.0000       3.605937        98.1225 
 469   0.0000       3.611131        98.2639 
 470   0.0000       3.618187        98.4559 
 471   0.0000       3.630575        98.7930 
 472   0.0000       3.635669        98.9316 
 473   0.0000       3.642665        99.1220 
 474   0.0000       3.647476        99.2529 
 475   0.0000       3.664735        99.7225 
 476   0.0000       3.673999        99.9746 
 477   0.0000       3.681894       100.1894 
 478   0.0000       3.697789       100.6220 
 479   0.0000       3.703802       100.7856 
 480   0.0000       3.716370       101.1276 
 481   0.0000       3.738433       101.7279 
 482   0.0000       3.740736       101.7906 
 483   0.0000       3.760427       102.3264 
 484   0.0000       3.768796       102.5542 
 485   0.0000       3.797338       103.3308 
 486   0.0000       3.810591       103.6915 
 487   0.0000       3.821763       103.9955 
 488   0.0000       3.834963       104.3546 
 489   0.0000       3.848327       104.7183 
 490   0.0000       3.853562       104.8608 
 491   0.0000       3.871090       105.3377 
 492   0.0000       3.892144       105.9106 
 493   0.0000       3.906448       106.2998 
 494   0.0000       3.932815       107.0173 
 495   0.0000       3.950084       107.4873 
 496   0.0000       3.956267       107.6555 
 497   0.0000       3.989442       108.5582 
 498   0.0000       3.997164       108.7684 
 499   0.0000       4.001495       108.8862 
 500   0.0000       4.005349       108.9911 
 501   0.0000       4.019664       109.3806 
 502   0.0000       4.056590       110.3854 
 503   0.0000       4.067426       110.6803 
 504   0.0000       4.084113       111.1344 
 505   0.0000       4.090125       111.2979 
 506   0.0000       4.102223       111.6272 
 507   0.0000       4.124957       112.2458 
 508   0.0000       4.134559       112.5071 
 509   0.0000       4.143906       112.7614 
 510   0.0000       4.165772       113.3564 
 511   0.0000       4.171844       113.5216 
 512   0.0000       4.175953       113.6335 
 513   0.0000       4.196766       114.1998 
 514   0.0000       4.216743       114.7434 
 515   0.0000       4.231487       115.1446 
 516   0.0000       4.241066       115.4053 
 517   0.0000       4.273156       116.2785 
 518   0.0000       4.276881       116.3798 
 519   0.0000       4.282985       116.5460 
 520   0.0000       4.292901       116.8158 
 521   0.0000       4.306689       117.1910 
 522   0.0000       4.331956       117.8785 
 523   0.0000       4.352633       118.4412 
 524   0.0000       4.363307       118.7316 
 525   0.0000       4.388750       119.4240 
 526   0.0000       4.395698       119.6130 
 527   0.0000       4.418774       120.2409 
 528   0.0000       4.434753       120.6758 
 529   0.0000       4.439467       120.8040 
 530   0.0000       4.469407       121.6187 
 531   0.0000       4.481550       121.9492 
 532   0.0000       4.491679       122.2248 
 533   0.0000       4.511232       122.7569 
 534   0.0000       4.527271       123.1933 
 535   0.0000       4.549889       123.8088 
 536   0.0000       4.559773       124.0777 
 537   0.0000       4.617183       125.6399 
 538   0.0000       4.633056       126.0719 
 539   0.0000       4.651829       126.5827 
 540   0.0000       4.656783       126.7175 
 541   0.0000       4.681027       127.3772 
 542   0.0000       4.701933       127.9461 
 543   0.0000       4.738608       128.9441 
 544   0.0000       4.747830       129.1950 
 545   0.0000       4.804951       130.7494 
 546   0.0000       4.819010       131.1319 
 547   0.0000       4.852500       132.0432 
 548   0.0000       4.865106       132.3863 
 549   0.0000       4.881240       132.8253 
 550   0.0000       4.905353       133.4814 
 551   0.0000       4.925855       134.0393 
 552   0.0000       4.935595       134.3044 
 553   0.0000       4.962726       135.0426 
 554   0.0000       4.992020       135.8398 
 555   0.0000       5.011215       136.3621 
 556   0.0000       5.042402       137.2107 
 557   0.0000       5.073852       138.0665 
 558   0.0000       5.091163       138.5376 
 559   0.0000       5.102284       138.8402 
 560   0.0000       5.124890       139.4554 
 561   0.0000       5.143345       139.9575 
 562   0.0000       5.157664       140.3472 
 563   0.0000       5.185693       141.1099 
 564   0.0000       5.202050       141.5550 
 565   0.0000       5.219644       142.0337 
 566   0.0000       5.260880       143.1558 
 567   0.0000       5.273408       143.4967 
 568   0.0000       5.299304       144.2014 
 569   0.0000       5.328561       144.9975 
 570   0.0000       5.353213       145.6683 
 571   0.0000       5.368963       146.0969 
[...]
     46       0.003588   0.000478  -0.003983
     47      -0.001613  -0.000251   0.001847
     48      -0.000250  -0.000028  -0.014428
     49       0.000074   0.000000  -0.058617
     50      -0.000108  -0.000005   0.014178
     51      -0.000311  -0.000023   0.000165
     52      -0.000124  -0.000010   0.000081
     53      -0.000067  -0.000004   0.000052
     54      -0.000256  -0.000007   0.000443
     55      -0.002680  -0.000058   0.000342
     56       0.000843   0.000002   0.000164
     57       0.002094  -0.000175   0.000160
     58      -0.001217   0.000220  -0.000230
     59       0.001602  -0.000142   0.000088
     60       0.000215   0.001003   0.000019
     61      -0.000188   0.000385  -0.000002
     62       0.000023   0.000478   0.000010
     63      -0.013205  -0.000030   0.000006
     64       0.066764   0.001711  -0.000104
     65       0.028931   0.000505  -0.000052
     66       0.000643   0.000095   0.245081
     67       0.001453   0.000136   0.941574
     68      -0.000683  -0.000136  -0.222469
     69       0.178094   0.004462  -0.000397
     70      -0.892141  -0.017612   0.001277
     71      -0.407326  -0.008027   0.000766
     72      -0.000100   0.001025  -0.000005
     73       0.000149  -0.001391  -0.000008
     74       0.000022  -0.000010  -0.000004
     75       0.000774  -0.000093  -0.000016
     76       0.000360   0.000004   0.000021
     77       0.000538  -0.000026  -0.000028
     78       0.008805   0.000095  -0.000006
     79      -0.015458  -0.000262  -0.000044
     80      -0.011703   0.000003  -0.000176
     81      -0.004655   0.000176  -0.000005
     82      -0.003597   0.000281  -0.000020
     83      -0.000023  -0.000092   0.000066
     84       0.002776   0.000245   0.000094
     85      -0.002173  -0.000465   0.000055
     86       0.004228   0.000459   0.000754
     87       0.000016  -0.000291   0.000002
     88      -0.000013   0.000344  -0.000009
     89      -0.000019   0.000006   0.000007
     90      -0.000179   0.000869  -0.000016
     91      -0.000041   0.000193  -0.000012
     92       0.000118  -0.000419   0.000016
     93      -0.000117   0.000656  -0.000002
     94      -0.000005  -0.000296  -0.000015
     95      -0.000169   0.000898  -0.000003
     96      -0.000107   0.004573   0.000022
     97       0.000328  -0.004389  -0.000030
     98       0.000043  -0.000107   0.000002


-----------
IR SPECTRUM
-----------

 Mode   freq       eps      Int      T**2         TX        TY        TZ
       cm**-1   L/(mol*cm) km/mol    a.u.
----------------------------------------------------------------------------
  6:     35.05   0.000711    3.59  0.006331  ( 0.021732 -0.052247 -0.055941)
  7:     47.75   0.000226    1.14  0.001479  (-0.010507  0.034742 -0.012707)
  8:     56.34   0.000230    1.16  0.001274  ( 0.018471  0.027758  0.012746)
  9:     64.34   0.000256    1.30  0.001244  (-0.007693  0.018661  0.028917)
 10:     84.63   0.001112    5.62  0.004099  ( 0.031645  0.003053 -0.055573)
 11:     91.41   0.002972   15.02  0.010145  (-0.006966  0.005838 -0.100311)
 12:    110.62   0.000202    1.02  0.000570  (-0.019484  0.002284  0.013591)
 13:    114.30   0.000392    1.98  0.001071  ( 0.018996  0.006342  0.025884)
 14:    136.10   0.000229    1.16  0.000524  ( 0.014093 -0.006733 -0.016740)
 15:    145.34   0.000773    3.91  0.001660  (-0.036399  0.000994 -0.018277)
 16:    161.07   0.002026   10.24  0.003926  (-0.062255  0.003598 -0.006088)
 17:    232.12   0.000881    4.45  0.001184  ( 0.022825  0.025172 -0.005442)
 18:    262.35   0.002533   12.80  0.003013  ( 0.014942 -0.018639 -0.049420)
 19:    279.63   0.002061   10.41  0.002300  ( 0.028637  0.016342  0.034821)
 20:    300.17   0.000943    4.77  0.000981  ( 0.028280 -0.000363 -0.013453)
 21:    312.48   0.001713    8.66  0.001711  ( 0.000877  0.006951  0.040765)
 22:    315.62   0.011244   56.82  0.011117  ( 0.040999 -0.030729 -0.092150)
 23:    335.75   0.000470    2.38  0.000437  (-0.017416 -0.008724 -0.007595)
 24:    355.51   0.000170    0.86  0.000149  ( 0.010076  0.004108  0.005538)
 25:    379.78   0.003469   17.53  0.002850  (-0.049117 -0.003577  0.020620)
 26:    417.51   0.001479    7.48  0.001106  (-0.006676 -0.007136  0.031783)
 27:    459.87   0.000717    3.63  0.000487  (-0.001291 -0.004302 -0.021603)
 28:    469.13   0.004038   20.40  0.002686  ( 0.041238  0.021755  0.022626)
 29:    510.19   0.002764   13.97  0.001691  ( 0.024911  0.029488  0.014157)
 30:    553.01   0.007464   37.72  0.004212  ( 0.000537  0.018370 -0.062242)
 31:    563.74   0.005718   28.90  0.003165  (-0.035995  0.001757  0.043205)
 32:    599.69   0.001409    7.12  0.000733  ( 0.010564 -0.016928  0.018308)
 33:    621.10   0.004054   20.49  0.002037  ( 0.002884  0.011780 -0.043473)
 34:    648.48   0.002656   13.42  0.001278  (-0.021306  0.011063 -0.026491)
 35:    665.48   0.001185    5.99  0.000556  (-0.006218  0.010956 -0.019926)
 36:    679.30   0.008604   43.48  0.003952  (-0.029633 -0.029524  0.046933)
 37:    725.51   0.004697   23.73  0.002020  (-0.014233 -0.004128  0.042432)
 38:    748.34   0.005686   28.73  0.002371  ( 0.017877  0.024642 -0.038004)
 39:    753.77   0.000475    2.40  0.000196  (-0.005722 -0.005442 -0.011580)
 40:    775.04   0.000499    2.52  0.000201  ( 0.005224  0.012162 -0.005059)
 41:    821.40   0.001389    7.02  0.000528  (-0.000127 -0.022909 -0.001698)
 42:    838.82   0.004886   24.69  0.001818  (-0.011169  0.012183  0.039299)
 43:    863.48   0.005620   28.40  0.002031  ( 0.005020  0.011843  0.043195)
 44:    884.20   0.006646   33.59  0.002346  (-0.016079  0.004724  0.045441)
 45:    948.43   0.000738    3.73  0.000243  ( 0.001257 -0.015479 -0.001251)
 46:    956.00   0.001525    7.71  0.000498  (-0.006304 -0.021354  0.001476)
 47:    976.85   0.003375   17.05  0.001078  ( 0.028828 -0.006818  0.014162)
 48:   1008.67   0.001249    6.31  0.000386  (-0.014384  0.012928 -0.003525)
 49:   1031.03   0.000668    3.38  0.000202  ( 0.008666  0.008955  0.006848)
 50:   1040.17   0.001346    6.80  0.000404  (-0.017484 -0.004241 -0.008961)
 51:   1058.16   0.001007    5.09  0.000297  (-0.006893 -0.005883  0.014658)
 52:   1093.50   0.001327    6.70  0.000379  (-0.012151 -0.014879 -0.003090)
 53:   1126.09   0.012912   65.25  0.003578  ( 0.033877 -0.041116  0.027203)
 54:   1147.87   0.002564   12.96  0.000697  (-0.020883 -0.016088 -0.001453)
 55:   1164.14   0.015475   78.21  0.004148  (-0.052657  0.018892 -0.031917)
 56:   1168.12   0.029848  150.84  0.007974  ( 0.073063 -0.014371  0.049285)
 57:   1185.75   0.000328    1.66  0.000086  (-0.007806 -0.004701  0.001793)
 58:   1197.54   0.002759   13.94  0.000719  ( 0.020776  0.007252  0.015318)
 59:   1202.25   0.004467   22.57  0.001159  (-0.028977 -0.013325 -0.011926)
 60:   1251.03   0.007391   37.35  0.001844  ( 0.020589 -0.032558  0.018967)
 61:   1259.15   0.004425   22.36  0.001097  (-0.028467 -0.011307 -0.012589)
 62:   1286.32   0.015223   76.93  0.003693  ( 0.058375 -0.010587  0.013166)
 63:   1296.50   0.003500   17.69  0.000843  ( 0.009203 -0.001379  0.027494)
 64:   1317.01   0.000820    4.15  0.000194  (-0.003167 -0.007097 -0.011577)
 65:   1344.04   0.003323   16.79  0.000771  ( 0.025618 -0.006722  0.008370)
 66:   1358.67   0.000358    1.81  0.000082  ( 0.005132  0.001650 -0.007287)
 67:   1385.11   0.001422    7.19  0.000320  ( 0.017506 -0.003666  0.000691)
 68:   1408.20   0.015626   78.97  0.003463  ( 0.053065  0.019183  0.016702)
 69:   1448.97   0.001934    9.77  0.000416  ( 0.005897  0.018714  0.005606)
 70:   1452.71   0.011020   55.69  0.002367  ( 0.040349  0.019130  0.019319)
 71:   1474.04   0.002131   10.77  0.000451  (-0.011423  0.009181 -0.015375)
 72:   1481.94   0.000952    4.81  0.000200  (-0.013595 -0.000484  0.003915)
 73:   1487.40   0.007012   35.44  0.001471  (-0.034419 -0.002965  0.016665)
 74:   1489.56   0.002789   14.09  0.000584  (-0.017382  0.015992 -0.005132)
 75:   1502.44   0.000679    3.43  0.000141  (-0.004458  0.005654  0.009449)
 76:   1505.26   0.005226   26.41  0.001083  (-0.030035  0.004490 -0.012696)
 77:   1557.63   0.128132  647.53  0.025671  ( 0.145520  0.041593  0.052579)
 78:   1580.13   0.001852    9.36  0.000366  (-0.018463  0.000020  0.004990)
 79:   1590.95   0.007179   36.28  0.001408  ( 0.031133  0.010189 -0.018303)
 80:   1626.32   0.091761  463.72  0.017607  ( 0.108159  0.059001  0.049276)
 81:   1662.64   0.076491  386.56  0.014357  ( 0.084732  0.082493  0.019292)
 82:   1754.37   0.083284  420.88  0.014814  (-0.009563  0.119471  0.021203)
 83:   1773.19   0.039770  200.98  0.006999  ( 0.072812 -0.036956  0.018217)
 84:   3058.97   0.007016   35.46  0.000716  (-0.021104 -0.015571  0.005290)
 85:   3064.17   0.005458   27.58  0.000556  ( 0.021994 -0.008146  0.002401)
 86:   3083.90   0.001788    9.04  0.000181  ( 0.006486  0.010653  0.005039)
 87:   3106.61   0.002057   10.39  0.000207  ( 0.014241  0.000226  0.001934)
 88:   3118.56   0.002311   11.68  0.000231  (-0.006215  0.011991 -0.006987)
 89:   3121.10   0.006125   30.95  0.000612  (-0.000625  0.023412 -0.007992)
 90:   3143.08   0.004025   20.34  0.000400  (-0.009540 -0.001076  0.017533)
 91:   3151.84   0.003873   19.57  0.000384  (-0.017856  0.001014 -0.007978)
 92:   3166.81   0.001076    5.44  0.000106  (-0.004773  0.003249  0.008527)
 93:   3175.44   0.002238   11.31  0.000220  ( 0.009004 -0.011321  0.003266)
 94:   3183.36   0.001472    7.44  0.000144  ( 0.001021  0.010775  0.005215)
 95:   3198.40   0.004433   22.40  0.000433  ( 0.001172  0.020646 -0.002221)
 96:   3526.28   0.037144  187.71  0.003287  (-0.000703 -0.040699 -0.040376)
 97:   3610.86   0.019843  100.28  0.001715  ( 0.032789 -0.025277 -0.000917)
 98:   3871.09   0.004615   23.32  0.000372  (-0.004464  0.016294 -0.009306)

* The epsilon (eps) is given for a Dirac delta lineshape.
** The dipole moment derivative (T) already includes vibrational overlap.

The first frequency considered to be a vibration is 6
The total number of vibrations considered is 93


--------------------------
THERMOCHEMISTRY AT 298.15K
--------------------------

Temperature         ... 298.15 K
Pressure            ... 1.00 atm
Total Mass          ... 251.26 AMU

Throughout the following assumptions are being made:
  (1) The electronic state is orbitally nondegenerate
  (2) There are no thermally accessible electronically excited states
  (3) Hindered rotations indicated by low frequency modes are not
      treated as such but are treated as vibrations and this may
      cause some error
  (4) All equations used are the standard statistical mechanics
      equations for an ideal gas
  (5) All vibrations are strictly harmonic

freq.      35.05  E(vib)   ...       0.54 
freq.      47.75  E(vib)   ...       0.53 
freq.      56.34  E(vib)   ...       0.52 
freq.      64.34  E(vib)   ...       0.51 
freq.      84.63  E(vib)   ...       0.48 
freq.      91.41  E(vib)   ...       0.47 
freq.     110.62  E(vib)   ...       0.45 
freq.     114.30  E(vib)   ...       0.44 
freq.     136.10  E(vib)   ...       0.42 
freq.     145.34  E(vib)   ...       0.41 
freq.     161.07  E(vib)   ...       0.39 
freq.     232.12  E(vib)   ...       0.32 
freq.     262.35  E(vib)   ...       0.29 
freq.     279.63  E(vib)   ...       0.28 
freq.     300.17  E(vib)   ...       0.26 
freq.     312.48  E(vib)   ...       0.25 
freq.     315.62  E(vib)   ...       0.25 
freq.     335.75  E(vib)   ...       0.24 
freq.     355.51  E(vib)   ...       0.22 
freq.     379.78  E(vib)   ...       0.21 
freq.     417.51  E(vib)   ...       0.18 
freq.     459.87  E(vib)   ...       0.16 
freq.     469.13  E(vib)   ...       0.16 
freq.     510.19  E(vib)   ...       0.14 
freq.     553.01  E(vib)   ...       0.12 
freq.     563.74  E(vib)   ...       0.11 
freq.     599.69  E(vib)   ...       0.10 
freq.     621.10  E(vib)   ...       0.09 
freq.     648.48  E(vib)   ...       0.08 
freq.     665.48  E(vib)   ...       0.08 
freq.     679.30  E(vib)   ...       0.08 
freq.     725.51  E(vib)   ...       0.06 
freq.     748.34  E(vib)   ...       0.06 
freq.     753.77  E(vib)   ...       0.06 
freq.     775.04  E(vib)   ...       0.05 
freq.     821.40  E(vib)   ...       0.05 
freq.     838.82  E(vib)   ...       0.04 
freq.     863.48  E(vib)   ...       0.04 
freq.     884.20  E(vib)   ...       0.04 
freq.     948.43  E(vib)   ...       0.03 
freq.     956.00  E(vib)   ...       0.03 
freq.     976.85  E(vib)   ...       0.03 
freq.    1008.67  E(vib)   ...       0.02 
freq.    1031.03  E(vib)   ...       0.02 
freq.    1040.17  E(vib)   ...       0.02 
freq.    1058.16  E(vib)   ...       0.02 
freq.    1093.50  E(vib)   ...       0.02 
freq.    1126.09  E(vib)   ...       0.01 
freq.    1147.87  E(vib)   ...       0.01 
freq.    1164.14  E(vib)   ...       0.01 
freq.    1168.12  E(vib)   ...       0.01 
freq.    1185.75  E(vib)   ...       0.01 
freq.    1197.54  E(vib)   ...       0.01 
freq.    1202.25  E(vib)   ...       0.01 
freq.    1251.03  E(vib)   ...       0.01 
freq.    1259.15  E(vib)   ...       0.01 
freq.    1286.32  E(vib)   ...       0.01 
freq.    1296.50  E(vib)   ...       0.01 
freq.    1317.01  E(vib)   ...       0.01 
freq.    1344.04  E(vib)   ...       0.01 
freq.    1358.67  E(vib)   ...       0.01 
freq.    1385.11  E(vib)   ...       0.00 
freq.    1408.20  E(vib)   ...       0.00 
freq.    1448.97  E(vib)   ...       0.00 
freq.    1452.71  E(vib)   ...       0.00 
freq.    1474.04  E(vib)   ...       0.00 
freq.    1481.94  E(vib)   ...       0.00 
freq.    1487.40  E(vib)   ...       0.00 
freq.    1489.56  E(vib)   ...       0.00 
freq.    1502.44  E(vib)   ...       0.00 
freq.    1505.26  E(vib)   ...       0.00 
freq.    1557.63  E(vib)   ...       0.00 
freq.    1580.13  E(vib)   ...       0.00 
freq.    1590.95  E(vib)   ...       0.00 
freq.    1626.32  E(vib)   ...       0.00 
freq.    1662.64  E(vib)   ...       0.00 
freq.    1754.37  E(vib)   ...       0.00 
freq.    1773.19  E(vib)   ...       0.00 
freq.    3058.97  E(vib)   ...       0.00 
freq.    3064.17  E(vib)   ...       0.00 
freq.    3083.90  E(vib)   ...       0.00 
freq.    3106.61  E(vib)   ...       0.00 
freq.    3118.56  E(vib)   ...       0.00 
freq.    3121.10  E(vib)   ...       0.00 
freq.    3143.08  E(vib)   ...       0.00 
freq.    3151.84  E(vib)   ...       0.00 
freq.    3166.81  E(vib)   ...       0.00 
freq.    3175.44  E(vib)   ...       0.00 
freq.    3183.36  E(vib)   ...       0.00 
freq.    3198.40  E(vib)   ...       0.00 
freq.    3526.28  E(vib)   ...       0.00 
freq.    3610.86  E(vib)   ...       0.00 
freq.    3871.09  E(vib)   ...       0.00 

------------
INNER ENERGY
------------

The inner energy is: U= E(el) + E(ZPE) + E(vib) + E(rot) + E(trans)
    E(el)   - is the total energy from the electronic structure calculation
              = E(kin-el) + E(nuc-el) + E(el-el) + E(nuc-nuc)
    E(ZPE)  - the the zero temperature vibrational energy from the frequency calculation
    E(vib)  - the the finite temperature correction to E(ZPE) due to population
              of excited vibrational states
    E(rot)  - is the rotational thermal energy
    E(trans)- is the translational thermal energy

Summary of contributions to the inner energy U:
Electronic energy                ...   -876.78941340 Eh
Zero point energy                ...      0.26562758 Eh     166.68 kcal/mol
Thermal vibrational correction   ...      0.01521311 Eh       9.55 kcal/mol
Thermal rotational correction    ...      0.00141627 Eh       0.89 kcal/mol
Thermal translational correction ...      0.00141627 Eh       0.89 kcal/mol
-----------------------------------------------------------------------
Total thermal energy                   -876.50574017 Eh


Summary of corrections to the electronic energy:
(perhaps to be used in another calculation)
Total thermal correction                  0.01804565 Eh      11.32 kcal/mol
Non-thermal (ZPE) correction              0.26562758 Eh     166.68 kcal/mol
-----------------------------------------------------------------------
Total correction                          0.28367323 Eh     178.01 kcal/mol


--------
ENTHALPY
--------

The enthalpy is H = U + kB*T
                kB is Boltzmann's constant
Total free energy                 ...   -876.50574017 Eh 
Thermal Enthalpy correction       ...      0.00094421 Eh       0.59 kcal/mol
-----------------------------------------------------------------------
Total Enthalpy                    ...   -876.50479596 Eh


Note: Only C1 symmetry has been detected, increase convergence thresholds 
      if your molecule has a higher symmetry. Symmetry factor of 1.0 is   
      used for the rotational entropy correction. 
 

Note: Rotational entropy computed according to Herzberg 
Infrared and Raman Spectra, Chapter V,1, Van Nostrand Reinhold, 1945 
Point Group:  C1, Symmetry Number:   1  
Rotational constants in cm-1:     0.028217     0.007726     0.006884 

Vibrational entropy computed according to the QRRHO of S. Grimme
Chem.Eur.J. 2012 18 9955


-------
ENTROPY
-------

The entropy contributions are T*S = T*(S(el)+S(vib)+S(rot)+S(trans))
     S(el)   - electronic entropy
     S(vib)  - vibrational entropy
     S(rot)  - rotational entropy
     S(trans)- translational entropy
The entropies will be listed as multiplied by the temperature to get
units of energy

Electronic entropy                ...      0.00000000 Eh      0.00 kcal/mol
Vibrational entropy               ...      0.02701292 Eh     16.95 kcal/mol
Rotational entropy                ...      0.01584137 Eh      9.94 kcal/mol
Translational entropy             ...      0.02017609 Eh     12.66 kcal/mol
-----------------------------------------------------------------------
Final entropy term                ...      0.06303038 Eh     39.55 kcal/mol

In case the symmetry of your molecule has not been determined correctly
or in case you have a reason to use a different symmetry number we print 
out the resulting rotational entropy values for sn=1,12 :
 --------------------------------------------------------
|  sn= 1 | S(rot)=       0.01584137 Eh      9.94 kcal/mol|
|  sn= 2 | S(rot)=       0.01518691 Eh      9.53 kcal/mol|
|  sn= 3 | S(rot)=       0.01480408 Eh      9.29 kcal/mol|
|  sn= 4 | S(rot)=       0.01453246 Eh      9.12 kcal/mol|
|  sn= 5 | S(rot)=       0.01432177 Eh      8.99 kcal/mol|
|  sn= 6 | S(rot)=       0.01414963 Eh      8.88 kcal/mol|
|  sn= 7 | S(rot)=       0.01400408 Eh      8.79 kcal/mol|
|  sn= 8 | S(rot)=       0.01387800 Eh      8.71 kcal/mol|
|  sn= 9 | S(rot)=       0.01376679 Eh      8.64 kcal/mol|
|  sn=10 | S(rot)=       0.01366731 Eh      8.58 kcal/mol|
|  sn=11 | S(rot)=       0.01357732 Eh      8.52 kcal/mol|
|  sn=12 | S(rot)=       0.01349517 Eh      8.47 kcal/mol|
 --------------------------------------------------------


-------------------
GIBBS FREE ENERGY
-------------------

The Gibbs free energy is G = H - T*S

Total enthalpy                    ...   -876.50479596 Eh 
Total entropy correction          ...     -0.06303038 Eh    -39.55 kcal/mol
-----------------------------------------------------------------------
Final Gibbs free energy         ...   -876.56782634 Eh

For completeness - the Gibbs free energy minus the electronic energy
G-E(el)                           ...      0.22158706 Eh    139.05 kcal/mol


Timings for individual modules:

Sum of individual times         ...     1740.928 sec (=  29.015 min)
GTO integral calculation        ...       41.119 sec (=   0.685 min)   2.4 %
SCF iterations                  ...      655.637 sec (=  10.927 min)  37.7 %
SCF Gradient evaluation         ...      188.118 sec (=   3.135 min)  10.8 %
Geometry relaxation             ...        0.664 sec (=   0.011 min)   0.0 %
Analytical frequency calculation...      855.390 sec (=  14.256 min)  49.1 %
                             ****ORCA TERMINATED NORMALLY****
TOTAL RUN TIME: 0 days 0 hours 29 minutes 34 seconds 224 msec
