
                                 *****************
                                 * O   R   C   A *
                                 *****************

                                            #,                                       
                                            ###                                      
                                            ####                                     
                                            #####                                    
                                            ######                                   
                                           ########,                                 
                                     ,,################,,,,,                         
                               ,,#################################,,                 
                          ,,##########################################,,             
                       ,#########################################, ''#####,          
                    ,#############################################,,   '####,        
                  ,##################################################,,,,####,       
                ,###########''''           ''''###############################       
              ,#####''   ,,,,##########,,,,          '''####'''          '####       
            ,##' ,,,,###########################,,,                        '##       
           ' ,,###''''                  '''############,,,                           
         ,,##''                                '''############,,,,        ,,,,,,###''
      ,#''                                            '''#######################'''  
     '                                                          ''''####''''         
             ,#######,   #######,   ,#######,      ##                                
            ,#'     '#,  ##    ##  ,#'     '#,    #''#        ######   ,####,        
            ##       ##  ##   ,#'  ##            #'  '#       #        #'  '#        
            ##       ##  #######   ##           ,######,      #####,   #    #        
            '#,     ,#'  ##    ##  '#,     ,#' ,#      #,         ##   #,  ,#        
             '#######'   ##     ##  '#######'  #'      '#     #####' # '####'        



                  #######################################################
                  #                        -***-                        #
                  #          Department of theory and spectroscopy      #
                  #    Directorship and core code : Frank Neese         #
                  #        Max Planck Institute fuer Kohlenforschung    #
                  #                Kaiser Wilhelm Platz 1               #
                  #                 D-45470 Muelheim/Ruhr               #
                  #                      Germany                        #
                  #                                                     #
                  #                  All rights reserved                #
                  #                        -***-                        #
                  #######################################################


                         Program Version 5.0.4 -  RELEASE  -


 With contributions from (in alphabetic order):
   Daniel Aravena         : Magnetic Suceptibility
   Michael Atanasov       : Ab Initio Ligand Field Theory (pilot matlab implementation)
   Alexander A. Auer      : GIAO ZORA, VPT2 properties, NMR spectrum
   Ute Becker             : Parallelization
   Giovanni Bistoni       : ED, misc. LED, open-shell LED, HFLD
   Martin Brehm           : Molecular dynamics
   Dmytro Bykov           : SCF Hessian
   Vijay G. Chilkuri      : MRCI spin determinant printing, contributions to CSF-ICE
   Dipayan Datta          : RHF DLPNO-CCSD density
   Achintya Kumar Dutta   : EOM-CC, STEOM-CC
   Dmitry Ganyushin       : Spin-Orbit,Spin-Spin,Magnetic field MRCI
   Miquel Garcia          : C-PCM and meta-GGA Hessian, CC/C-PCM, Gaussian charge scheme
   Yang Guo               : DLPNO-NEVPT2, F12-NEVPT2, CIM, IAO-localization
   Andreas Hansen         : Spin unrestricted coupled pair/coupled cluster methods
   Benjamin Helmich-Paris : MC-RPA, TRAH-SCF, COSX integrals
   Lee Huntington         : MR-EOM, pCC
   Robert Izsak           : Overlap fitted RIJCOSX, COSX-SCS-MP3, EOM
   Marcus Kettner         : VPT2
   Christian Kollmar      : KDIIS, OOCD, Brueckner-CCSD(T), CCSD density, CASPT2, CASPT2-K
   Simone Kossmann        : Meta GGA functionals, TD-DFT gradient, OOMP2, MP2 Hessian
   Martin Krupicka        : Initial AUTO-CI
   Lucas Lang             : DCDCAS
   Marvin Lechner         : AUTO-CI (C++ implementation), FIC-MRCC
   Dagmar Lenk            : GEPOL surface, SMD
   Dimitrios Liakos       : Extrapolation schemes; Compound Job, initial MDCI parallelization
   Dimitrios Manganas     : Further ROCIS development; embedding schemes
   Dimitrios Pantazis     : SARC Basis sets
   Anastasios Papadopoulos: AUTO-CI, single reference methods and gradients
   Taras Petrenko         : DFT Hessian,TD-DFT gradient, ASA, ECA, R-Raman, ABS, FL, XAS/XES, NRVS
   Peter Pinski           : DLPNO-MP2, DLPNO-MP2 Gradient
   Christoph Reimann      : Effective Core Potentials
   Marius Retegan         : Local ZFS, SOC
   Christoph Riplinger    : Optimizer, TS searches, QM/MM, DLPNO-CCSD(T), (RO)-DLPNO pert. Triples
   Tobias Risthaus        : Range-separated hybrids, TD-DFT gradient, RPA, STAB
   Michael Roemelt        : Original ROCIS implementation
   Masaaki Saitow         : Open-shell DLPNO-CCSD energy and density
   Barbara Sandhoefer     : DKH picture change effects
   Avijit Sen             : IP-ROCIS
   Kantharuban Sivalingam : CASSCF convergence, NEVPT2, FIC-MRCI
   Bernardo de Souza      : ESD, SOC TD-DFT
   Georgi Stoychev        : AutoAux, RI-MP2 NMR, DLPNO-MP2 response
   Willem Van den Heuvel  : Paramagnetic NMR
   Boris Wezisla          : Elementary symmetry handling
   Frank Wennmohs         : Technical directorship


 We gratefully acknowledge several colleagues who have allowed us to
 interface, adapt or use parts of their codes:
   Stefan Grimme, W. Hujo, H. Kruse, P. Pracht,  : VdW corrections, initial TS optimization,
                  C. Bannwarth, S. Ehlert          DFT functionals, gCP, sTDA/sTD-DF
   Ed Valeev, F. Pavosevic, A. Kumar             : LibInt (2-el integral package), F12 methods
   Garnet Chan, S. Sharma, J. Yang, R. Olivares  : DMRG
   Ulf Ekstrom                                   : XCFun DFT Library
   Mihaly Kallay                                 : mrcc  (arbitrary order and MRCC methods)
   Jiri Pittner, Ondrej Demel                    : Mk-CCSD
   Frank Weinhold                                : gennbo (NPA and NBO analysis)
   Christopher J. Cramer and Donald G. Truhlar   : smd solvation model
   Lars Goerigk                                  : TD-DFT with DH, B97 family of functionals
   V. Asgeirsson, H. Jonsson                     : NEB implementation
   FAccTs GmbH                                   : IRC, NEB, NEB-TS, DLPNO-Multilevel, CI-OPT
                                                   MM, QMMM, 2- and 3-layer-ONIOM, Crystal-QMMM,
                                                   LR-CPCM, SF, NACMEs, symmetry and pop. for TD-DFT,
                                                   nearIR, NL-DFT gradient (VV10), updates on ESD,
                                                   ML-optimized integration grids
   S Lehtola, MJT Oliveira, MAL Marques          : LibXC Library
   Liviu Ungur et al                             : ANISO software


 Your calculation uses the libint2 library for the computation of 2-el integrals
 For citations please refer to: http://libint.valeyev.net

 Your ORCA version has been built with support for libXC version: 5.1.0
 For citations please refer to: https://tddft.org/programs/libxc/

 This ORCA versions uses:
   CBLAS   interface :  Fast vector & matrix operations
   LAPACKE interface :  Fast linear algebra routines
   SCALAPACK package :  Parallel linear algebra routines
   Shared memory     :  Shared parallel matrices
   BLAS/LAPACK       :  OpenBLAS 0.3.15  USE64BITINT DYNAMIC_ARCH NO_AFFINITY SkylakeX SINGLE_THREADED
        Core in use  :  SkylakeX
   Copyright (c) 2011-2014, The OpenBLAS Project




***************************************
The coordinates will be read from file: opt_EPRII.xyz
***************************************


XCFun DFT library Copyright 2009-2010 Ulf Ekstrom and contributors.
See http://admol.org/xcfun for more information.
This is free software; see the source code for copying conditions.
There is ABSOLUTELY NO WARRANTY; not even for MERCHANTABILITY or FITNESS FOR A PARTICULAR PURPOSE.
For details see the documentation.
Scientific users of this library should cite U. Ekstrom, L. Visscher, R. Bast, A. J. Thorvaldsen and K. Ruud;
J.Chem.Theor.Comp. 2010, DOI: 10.1021/ct100117s
XCFun Version 0.99 

================================================================================

----- Orbital basis set information -----
Your calculation utilizes the basis: def2-TZVP
   F. Weigend and R. Ahlrichs, Phys. Chem. Chem. Phys. 7, 3297 (2005).

----- AuxJ basis set information -----
Your calculation utilizes the auxiliary basis: def2/J
   F. Weigend, Phys. Chem. Chem. Phys. 8, 1057 (2006).

================================================================================
                                        WARNINGS
                       Please study these warnings very carefully!
================================================================================


WARNING: your system is open-shell and RHF/RKS was chosen
  ===> : WILL SWITCH to UHF/UKS


WARNING: Geometry Optimization
  ===> : Switching off AutoStart
         For restart on a previous wavefunction, please use MOREAD

WARNING: Minnesota functionals are quite sensitive to the integration grid.
         see SE Wheeler, KN Houk, JCTC 2010, 6, 395,
             N Mardirossian, M Head-Gordon, JCTC 2016, 12, 4303.
         DEFGRID3 seems to be a minimum grid for reliable results with these functionals!
  ===> : Please increase the integration grid!


INFO   : the flag for use of the SHARK integral package has been found!

================================================================================
                                       INPUT FILE
================================================================================
NAME = freq.inp
|  1> ! M062X def2-TZVP OPT FREQ
|  2> %pal nprocs 16 end
|  3> *XYZFile 0 2 opt_EPRII.xyz
|  4> 
|  5>                          ****END OF INPUT****
================================================================================

                       *****************************
                       * Geometry Optimization Run *
                       *****************************

Geometry optimization settings:
Update method            Update   .... BFGS
Choice of coordinates    CoordSys .... Z-matrix Internals
Initial Hessian          InHess   .... Almoef's Model

Convergence Tolerances:
Energy Change            TolE     ....  5.0000e-06 Eh
Max. Gradient            TolMAXG  ....  3.0000e-04 Eh/bohr
RMS Gradient             TolRMSG  ....  1.0000e-04 Eh/bohr
Max. Displacement        TolMAXD  ....  4.0000e-03 bohr
RMS Displacement         TolRMSD  ....  2.0000e-03 bohr
Strict Convergence                ....  False
------------------------------------------------------------------------------
                        ORCA OPTIMIZATION COORDINATE SETUP
------------------------------------------------------------------------------

The optimization will be done in new redundant internal coordinates
Making redundant internal coordinates   ...  (new redundants) done
Evaluating the initial hessian          ...  (Almloef) done
Evaluating the coordinates              ...  done
Calculating the B-matrix                .... done
Calculating the G-matrix                .... done
Diagonalizing the G-matrix              .... done
The first mode is                       ....   24
The number of degrees of freedom        ....   30

    -----------------------------------------------------------------
                    Redundant Internal Coordinates


    -----------------------------------------------------------------
         Definition                    Initial Value    Approx d2E/dq
    -----------------------------------------------------------------
      1. B(C   1,H   0)                  1.0870         0.364061   
      2. B(C   2,C   1)                  1.4186         0.562577   
      3. B(H   3,C   2)                  1.0867         0.364535   
      4. B(C   4,C   2)                  1.4186         0.562577   
      5. B(H   5,C   4)                  1.0870         0.364061   
      6. B(C   6,C   4)                  1.3860         0.633978   
      7. B(H   7,C   6)                  1.0862         0.365098   
      8. B(C   8,C   6)                  1.4608         0.481622   
      9. B(C   9,C   8)                  1.4608         0.481622   
     10. B(C   9,C   1)                  1.3860         0.633979   
     11. B(H  10,C   9)                  1.0862         0.365097   
     12. B(O  11,C   8)                  1.2604         0.900805   
     13. A(H   0,C   1,C   2)          119.4446         0.347807   
     14. A(H   0,C   1,C   9)          120.2622         0.354902   
     15. A(C   2,C   1,C   9)          120.2932         0.428266   
     16. A(H   3,C   2,C   4)          119.6669         0.347883   
     17. A(C   1,C   2,C   4)          120.6662         0.419214   
     18. A(C   1,C   2,H   3)          119.6669         0.347883   
     19. A(H   5,C   4,C   6)          120.2622         0.354902   
     20. A(C   2,C   4,C   6)          120.2932         0.428266   
     21. A(C   2,C   4,H   5)          119.4446         0.347807   
     22. A(H   7,C   6,C   8)          117.1203         0.339025   
     23. A(C   4,C   6,C   8)          120.7098         0.416543   
     24. A(C   4,C   6,H   7)          122.1699         0.355073   
     25. A(C   6,C   8,C   9)          117.3278         0.396787   
     26. A(C   9,C   8,O  11)          121.3361         0.440729   
     27. A(C   6,C   8,O  11)          121.3361         0.440729   
     28. A(C   1,C   9,H  10)          122.1699         0.355073   
     29. A(C   1,C   9,C   8)          120.7098         0.416543   
     30. A(C   8,C   9,H  10)          117.1203         0.339025   
     31. D(C   4,C   2,C   1,H   0)    180.0000         0.021687   
     32. D(C   4,C   2,C   1,C   9)     -0.0000         0.021687   
     33. D(H   3,C   2,C   1,C   9)   -180.0000         0.021687   
     34. D(H   3,C   2,C   1,H   0)     -0.0000         0.021687   
     35. D(C   6,C   4,C   2,C   1)      0.0000         0.021687   
     36. D(H   5,C   4,C   2,C   1)   -180.0000         0.021687   
     37. D(H   5,C   4,C   2,H   3)     -0.0000         0.021687   
     38. D(C   6,C   4,C   2,H   3)    180.0000         0.021687   
     39. D(C   8,C   6,C   4,H   5)   -180.0000         0.027891   
     40. D(C   8,C   6,C   4,C   2)      0.0000         0.027891   
     41. D(H   7,C   6,C   4,H   5)     -0.0000         0.027891   
     42. D(H   7,C   6,C   4,C   2)    180.0000         0.027891   
     43. D(O  11,C   8,C   6,C   4)   -179.9999         0.015793   
     44. D(C   9,C   8,C   6,H   7)    180.0000         0.015793   
     45. D(C   9,C   8,C   6,C   4)     -0.0000         0.015793   
     46. D(O  11,C   8,C   6,H   7)      0.0001         0.015793   
     47. D(H  10,C   9,C   8,O  11)     -0.0001         0.015793   
     48. D(C   1,C   9,C   8,O  11)    179.9999         0.015793   
     49. D(C   1,C   9,C   8,C   6)      0.0000         0.015793   
     50. D(H  10,C   9,C   1,C   2)    180.0000         0.027891   
     51. D(H  10,C   9,C   1,H   0)     -0.0000         0.027891   
     52. D(H  10,C   9,C   8,C   6)   -179.9999         0.015793   
     53. D(C   8,C   9,C   1,C   2)     -0.0000         0.027891   
     54. D(C   8,C   9,C   1,H   0)   -180.0000         0.027891   
    -----------------------------------------------------------------

Number of atoms                         .... 12
Number of degrees of freedom            .... 54

         *************************************************************
         *                GEOMETRY OPTIMIZATION CYCLE   1            *
         *************************************************************
---------------------------------
CARTESIAN COORDINATES (ANGSTROEM)
---------------------------------
  H     -0.000000   -1.648636    2.165454
  C      0.000000   -1.090593    1.232606
  C      0.000000   -1.792717   -0.000000
  H      0.000000   -2.879384    0.000000
  C     -0.000000   -1.090593   -1.232606
  H     -0.000000   -1.648636   -2.165455
  C      0.000000    0.295353   -1.247756
  H     -0.000000    0.863621   -2.173502
  C      0.000001    1.055076    0.000000
  C      0.000000    0.295353    1.247756
  H     -0.000000    0.863621    2.173502
  O     -0.000000    2.315485    0.000000

----------------------------
CARTESIAN COORDINATES (A.U.)
----------------------------
  NO LB      ZA    FRAG     MASS         X           Y           Z
   0 H     1.0000    0     1.008   -0.000001   -3.115470    4.092116
   1 C     6.0000    0    12.011    0.000000   -2.060923    2.329288
   2 C     6.0000    0    12.011    0.000000   -3.387744   -0.000000
   3 H     1.0000    0     1.008    0.000000   -5.441248    0.000000
   4 C     6.0000    0    12.011   -0.000000   -2.060923   -2.329289
   5 H     1.0000    0     1.008   -0.000001   -3.115470   -4.092116
   6 C     6.0000    0    12.011    0.000000    0.558136   -2.357916
   7 H     1.0000    0     1.008   -0.000000    1.632008   -4.107323
   8 C     6.0000    0    12.011    0.000001    1.993806    0.000000
   9 C     6.0000    0    12.011    0.000000    0.558136    2.357916
  10 H     1.0000    0     1.008   -0.000001    1.632008    4.107323
  11 O     8.0000    0    15.999   -0.000001    4.375632    0.000000

--------------------------------
INTERNAL COORDINATES (ANGSTROEM)
--------------------------------
 H      0   0   0     0.000000000000     0.00000000     0.00000000
 C      1   0   0     1.087022142454     0.00000000     0.00000000
 C      2   1   0     1.418554170494   119.44462586     0.00000000
 H      3   2   1     1.086667604950   119.66691545     0.00000000
 C      3   2   1     1.418554173267   120.66615234   179.99996192
 H      5   3   2     1.087022125150   119.44463582   180.00001805
 C      5   3   2     1.386028700700   120.29317283     0.00000000
 H      7   5   3     1.086248209302   122.16991055   179.99999915
 C      7   5   3     1.460847080643   120.70982740     0.00000000
 C      2   1   3     1.386028666500   120.26220120   179.99997815
 H     10   2   1     1.086248240516   122.16990994     0.00000000
 O      9   7   5     1.260408242426   121.33607837   180.00006343

---------------------------
INTERNAL COORDINATES (A.U.)
---------------------------
 H      0   0   0     0.000000000000     0.00000000     0.00000000
 C      1   0   0     2.054174150746     0.00000000     0.00000000
 C      2   1   0     2.680678888365   119.44462586     0.00000000
 H      3   2   1     2.053504171959   119.66691545     0.00000000
 C      3   2   1     2.680678893606   120.66615234   179.99996192
 H      5   3   2     2.054174118047   119.44463582   180.00001805
 C      5   3   2     2.619214658077   120.29317283     0.00000000
 H      7   5   3     2.052711629043   122.16991055   179.99999915
 C      7   5   3     2.760600905955   120.70982740     0.00000000
 C      2   1   3     2.619214593450   120.26220120   179.99997815
 H     10   2   1     2.052711688029   122.16990994     0.00000000
 O      9   7   5     2.381826395123   121.33607837   180.00006343

---------------------
BASIS SET INFORMATION
---------------------
There are 3 groups of distinct atoms

 Group   1 Type H   : 5s1p contracted to 3s1p pattern {311/1}
 Group   2 Type C   : 11s6p2d1f contracted to 5s3p2d1f pattern {62111/411/11/1}
 Group   3 Type O   : 11s6p2d1f contracted to 5s3p2d1f pattern {62111/411/11/1}

Atom   0H    basis set group =>   1
Atom   1C    basis set group =>   2
Atom   2C    basis set group =>   2
Atom   3H    basis set group =>   1
Atom   4C    basis set group =>   2
Atom   5H    basis set group =>   1
Atom   6C    basis set group =>   2
Atom   7H    basis set group =>   1
Atom   8C    basis set group =>   2
Atom   9C    basis set group =>   2
Atom  10H    basis set group =>   1
Atom  11O    basis set group =>   3
---------------------------------
AUXILIARY/J BASIS SET INFORMATION
---------------------------------
There are 3 groups of distinct atoms

 Group   1 Type H   : 5s2p1d contracted to 3s1p1d pattern {311/2/1}
 Group   2 Type C   : 12s5p4d2f1g contracted to 6s4p3d1f1g pattern {711111/2111/211/2/1}
 Group   3 Type O   : 12s5p4d2f1g contracted to 6s4p3d1f1g pattern {711111/2111/211/2/1}

Atom   0H    basis set group =>   1
Atom   1C    basis set group =>   2
Atom   2C    basis set group =>   2
Atom   3H    basis set group =>   1
Atom   4C    basis set group =>   2
Atom   5H    basis set group =>   1
Atom   6C    basis set group =>   2
Atom   7H    basis set group =>   1
Atom   8C    basis set group =>   2
Atom   9C    basis set group =>   2
Atom  10H    basis set group =>   1
Atom  11O    basis set group =>   3


           ************************************************************
           *        Program running with 16 parallel MPI-processes    *
           *              working on a common directory               *
           ************************************************************
------------------------------------------------------------------------------
                           ORCA GTO INTEGRAL CALCULATION
                           -- RI-GTO INTEGRALS CHOSEN --
------------------------------------------------------------------------------
------------------------------------------------------------------------------
                   ___                                                        
                  /   \      - P O W E R E D   B Y -                         
                 /     \                                                     
                 |  |  |   _    _      __       _____    __    __             
                 |  |  |  | |  | |    /  \     |  _  \  |  |  /  |          
                  \  \/   | |  | |   /    \    | | | |  |  | /  /          
                 / \  \   | |__| |  /  /\  \   | |_| |  |  |/  /          
                |  |  |   |  __  | /  /__\  \  |    /   |      \           
                |  |  |   | |  | | |   __   |  |    \   |  |\   \          
                \     /   | |  | | |  |  |  |  | |\  \  |  | \   \       
                 \___/    |_|  |_| |__|  |__|  |_| \__\ |__|  \__/        
                                                                              
                      - O R C A' S   B I G   F R I E N D -                    
                                      &                                       
                       - I N T E G R A L  F E E D E R -                       
                                                                              
 v1 FN, 2020, v2 2021                                                         
------------------------------------------------------------------------------


Reading SHARK input file freq.SHARKINP.tmp ... ok
----------------------
SHARK INTEGRAL PACKAGE
----------------------

Number of atoms                             ...     12
Number of basis functions                   ...    247
Number of shells                            ...     97
Maximum angular momentum                    ...      3
Integral batch strategy                     ... SHARK/LIBINT Hybrid
RI-J (if used) integral strategy            ... SPLIT-RIJ (Revised 2003 algorithm where possible)
Printlevel                                  ...      1
Contraction scheme used                     ... SEGMENTED contraction
Coulomb Range Separation                    ... NOT USED
Exchange Range Separation                   ... NOT USED
Finite Nucleus Model                        ... NOT USED
Auxiliary Coulomb fitting basis             ... AVAILABLE
   # of basis functions in Aux-J            ...    398
   # of shells in Aux-J                     ...    130
   Maximum angular momentum in Aux-J        ...      4
Auxiliary J/K fitting basis                 ... NOT available
Auxiliary Correlation fitting basis         ... NOT available
Auxiliary 'external' fitting basis          ... NOT available
Integral threshold                          ...     2.500000e-11
Primitive cut-off                           ...     2.500000e-12
Primitive pair pre-selection threshold      ...     2.500000e-12

Calculating pre-screening integrals         ... done (  0.0 sec) Dimension = 97
Organizing shell pair data                  ... done (  0.1 sec)
Shell pair information
Total number of shell pairs                 ...      4753
Shell pairs after pre-screening             ...      4506
Total number of primitive shell pairs       ...     14704
Primitive shell pairs kept                  ...     10772
          la=0 lb=0:   1151 shell pairs
          la=1 lb=0:   1239 shell pairs
          la=1 lb=1:    345 shell pairs
          la=2 lb=0:    672 shell pairs
          la=2 lb=1:    358 shell pairs
          la=2 lb=2:    102 shell pairs
          la=3 lb=0:    335 shell pairs
          la=3 lb=1:    179 shell pairs
          la=3 lb=2:     97 shell pairs
          la=3 lb=3:     28 shell pairs

Calculating one electron integrals          ... done (  0.0 sec)
Calculating RI/J V-Matrix + Cholesky decomp.... done (  0.1 sec)
Calculating Nuclear repulsion               ... done (  0.0 sec) ENN=    258.691740380575 Eh

SHARK setup successfully completed in   0.4 seconds

Maximum memory used throughout the entire GTOINT-calculation: 18.1 MB


           ************************************************************
           *        Program running with 16 parallel MPI-processes    *
           *              working on a common directory               *
           ************************************************************
-------------------------------------------------------------------------------
                                 ORCA SCF
-------------------------------------------------------------------------------

------------
SCF SETTINGS
------------
Hamiltonian:
 Density Functional     Method          .... DFT(GTOs)
 Exchange Functional    Exchange        .... M062X
 Correlation Functional Correlation     .... M062X
 Gradients option       PostSCFGGA      .... off
 Hybrid DFT is turned on
   Fraction HF Exchange ScalHFX         ....  0.540000
   Scaling of DF-GGA-X  ScalDFX         ....  0.460000
   Scaling of DF-GGA-C  ScalDFC         ....  1.000000
   Scaling of DF-LDA-C  ScalLDAC        ....  1.000000
   Perturbative correction              ....  0.000000
   Density functional embedding theory  .... OFF
 RI-approximation to the Coulomb term is turned on
   Number of AuxJ basis functions       .... 398
   RIJ-COSX (HFX calculated with COS-X)).... on


General Settings:
 Integral files         IntName         .... freq
 Hartree-Fock type      HFTyp           .... UHF
 Total Charge           Charge          ....    0
 Multiplicity           Mult            ....    2
 Number of Electrons    NEL             ....   49
 Basis Dimension        Dim             ....  247
 Nuclear Repulsion      ENuc            ....    258.6917403806 Eh

Convergence Acceleration:
 DIIS                   CNVDIIS         .... on
   Start iteration      DIISMaxIt       ....    12
   Startup error        DIISStart       ....  0.200000
   # of expansion vecs  DIISMaxEq       ....     5
   Bias factor          DIISBfac        ....   1.050
   Max. coefficient     DIISMaxC        ....  10.000
 Trust-Rad. Augm. Hess. CNVTRAH         .... auto
   Auto Start mean grad. ratio tolernc. ....  1.125000
   Auto Start start iteration           ....    20
   Auto Start num. interpolation iter.  ....    10
   Max. Number of Micro iterations      ....    16
   Max. Number of Macro iterations      .... Maxiter - #DIIS iter
   Number of Davidson start vectors     ....     2
   Converg. threshold I  (grad. norm)   ....   1.000e-05
   Converg. threshold II (energy diff.) ....   1.000e-08
   Grad. Scal. Fac. for Micro threshold ....   0.100
   Minimum threshold for Micro iter.    ....   0.010
   NR start threshold (gradient norm)   ....   0.001
   Initial trust radius                 ....   0.400
   Minimum AH scaling param. (alpha)    ....   1.000
   Maximum AH scaling param. (alpha)    .... 1000.000
   Orbital update algorithm             .... Taylor
   White noise on init. David. guess    .... on
   Maximum white noise                  ....   0.010
   Quad. conv. algorithm                .... NR
 SOSCF                  CNVSOSCF        .... off
 Level Shifting         CNVShift        .... on
   Level shift para.    LevelShift      ....    0.2500
   Turn off err/grad.   ShiftErr        ....    0.0010
 Zerner damping         CNVZerner       .... off
 Static damping         CNVDamp         .... on
   Fraction old density DampFac         ....    0.7000
   Max. Damping (<1)    DampMax         ....    0.9800
   Min. Damping (>=0)   DampMin         ....    0.0000
   Turn off err/grad.   DampErr         ....    0.1000
 Fernandez-Rico         CNVRico         .... off

SCF Procedure:
 Maximum # iterations   MaxIter         ....   125
 SCF integral mode      SCFMode         .... Direct
   Integral package                     .... SHARK and LIBINT hybrid scheme
 Reset frequency        DirectResetFreq ....    20
 Integral Threshold     Thresh          ....  2.500e-11 Eh
 Primitive CutOff       TCut            ....  2.500e-12 Eh

Convergence Tolerance:
 Convergence Check Mode ConvCheckMode   .... Total+1el-Energy
 Convergence forced     ConvForced      .... 0
 Energy Change          TolE            ....  1.000e-08 Eh
 1-El. energy change                    ....  1.000e-05 Eh
 DIIS Error             TolErr          ....  5.000e-07


Diagonalization of the overlap matrix:
Smallest eigenvalue                        ... 1.414e-05
Time for diagonalization                   ...    0.015 sec
Threshold for overlap eigenvalues          ... 1.000e-08
Number of eigenvalues below threshold      ... 0
Time for construction of square roots      ...    0.025 sec
Total time needed                          ...    0.040 sec

Time for model grid setup =    0.102 sec

------------------------------
INITIAL GUESS: MODEL POTENTIAL
------------------------------
Loading Hartree-Fock densities                     ... done
Calculating cut-offs                               ... done
Initializing the effective Hamiltonian             ... done
Setting up the integral package (SHARK)            ... done
Starting the Coulomb interaction                   ... done (   0.1 sec)
Reading the grid                                   ... done
Mapping shells                                     ... done
Starting the XC term evaluation                    ... done (   0.1 sec)
  promolecular density results
     # of electrons  =     48.999529600
     EX              =    -40.230129014
     EC              =     -1.611851944
     EX+EC           =    -41.841980958
Transforming the Hamiltonian                       ... done (   0.0 sec)
Diagonalizing the Hamiltonian                      ... done (   0.0 sec)
Back transforming the eigenvectors                 ... done (   0.0 sec)
Now organizing SCF variables                       ... done
                      ------------------
                      INITIAL GUESS DONE (   0.4 sec)
                      ------------------
-------------------
DFT GRID GENERATION
-------------------

General Integration Accuracy     IntAcc      ... 4.388
Radial Grid Type                 RadialGrid  ... OptM3 with GC (2021)
Angular Grid (max. ang.)         AngularGrid ... 4 (Lebedev-302)
Angular grid pruning method      GridPruning ... 4 (adaptive)
Weight generation scheme         WeightScheme... Becke
Basis function cutoff            BFCut       ... 1.0000e-11
Integration weight cutoff        WCut        ... 1.0000e-14
Angular grids for H and He will be reduced by one unit
Partially contracted basis set               ... off
Rotationally invariant grid construction     ... off

Total number of grid points                  ...    58387
Total number of batches                      ...      918
Average number of points per batch           ...       63
Average number of grid points per atom       ...     4866
Time for grid setup =    0.290 sec

--------------------
COSX GRID GENERATION
--------------------

GRIDX 1
-------
General Integration Accuracy     IntAcc      ... 3.816
Radial Grid Type                 RadialGrid  ... OptM3 with GC (2021)
Angular Grid (max. ang.)         AngularGrid ... 1 (Lebedev-50)
Angular grid pruning method      GridPruning ... 4 (adaptive)
Weight generation scheme         WeightScheme... Becke
Basis function cutoff            BFCut       ... 1.0000e-11
Integration weight cutoff        WCut        ... 1.0000e-14
Angular grids for H and He will be reduced by one unit
Partially contracted basis set               ... on
Rotationally invariant grid construction     ... off

Total number of grid points                  ...     7456
Total number of batches                      ...      120
Average number of points per batch           ...       62
Average number of grid points per atom       ...      621
UseSFitting                                  ... on

GRIDX 2
-------
General Integration Accuracy     IntAcc      ... 4.020
Radial Grid Type                 RadialGrid  ... OptM3 with GC (2021)
Angular Grid (max. ang.)         AngularGrid ... 2 (Lebedev-110)
Angular grid pruning method      GridPruning ... 4 (adaptive)
Weight generation scheme         WeightScheme... Becke
Basis function cutoff            BFCut       ... 1.0000e-11
Integration weight cutoff        WCut        ... 1.0000e-14
Angular grids for H and He will be reduced by one unit
Partially contracted basis set               ... on
Rotationally invariant grid construction     ... off

Total number of grid points                  ...    16533
Total number of batches                      ...      265
Average number of points per batch           ...       62
Average number of grid points per atom       ...     1378
UseSFitting                                  ... on

GRIDX 3
-------
General Integration Accuracy     IntAcc      ... 4.338
Radial Grid Type                 RadialGrid  ... OptM3 with GC (2021)
Angular Grid (max. ang.)         AngularGrid ... 3 (Lebedev-194)
Angular grid pruning method      GridPruning ... 4 (adaptive)
Weight generation scheme         WeightScheme... Becke
Basis function cutoff            BFCut       ... 1.0000e-11
Integration weight cutoff        WCut        ... 1.0000e-14
Angular grids for H and He will be reduced by one unit
Partially contracted basis set               ... on
Rotationally invariant grid construction     ... off

Total number of grid points                  ...    36468
Total number of batches                      ...      576
Average number of points per batch           ...       63
Average number of grid points per atom       ...     3039
UseSFitting                                  ... on

Time for X-Grid setup             =    0.760 sec

--------------
SCF ITERATIONS
--------------
ITER       Energy         Delta-E        Max-DP      RMS-DP      [F,P]     Damp
               ***  Starting incremental Fock matrix formation  ***
  0   -306.6300696499   0.000000000000 0.04916091  0.00093610  0.1472702 0.7000
  1   -306.7024886160  -0.072418966042 0.04582459  0.00079668  0.0751677 0.7000
                               ***Turning on DIIS***
  2   -306.7367693813  -0.034280765351 0.04608821  0.00128059  0.0326459 0.0000
  3   -306.7942434247  -0.057474043424 0.06020078  0.00081659  0.0379851 0.0000
  4   -306.8035612443  -0.009317819589 0.01227777  0.00018037  0.0148993 0.0000
  5   -306.8043858206  -0.000824576302 0.00730385  0.00011330  0.0055701 0.0000
  6   -306.8047616531  -0.000375832458 0.00459149  0.00008156  0.0039090 0.0000
  7   -306.8050216056  -0.000259952540 0.00272390  0.00005206  0.0023978 0.0000
  8   -306.8051538113  -0.000132205668 0.00130099  0.00002297  0.0014544 0.0000
  9   -306.8051954538  -0.000041642498 0.00121148  0.00001932  0.0007380 0.0000
               *** Restarting incremental Fock matrix formation ***
                                   *** Resetting DIIS ***
 10   -306.8051511404   0.000044313409 0.00038828  0.00001128  0.0002239 0.0000
 11   -306.8051534222  -0.000002281774 0.00019814  0.00000342  0.0002322 0.0000
 12   -306.8051545294  -0.000001107233 0.00020027  0.00000471  0.0001310 0.0000
 13   -306.8051555779  -0.000001048537 0.00011826  0.00000158  0.0001051 0.0000
 14   -306.8051557393  -0.000000161328 0.00007046  0.00000130  0.0000852 0.0000
 15   -306.8051557875  -0.000000048248 0.00002320  0.00000031  0.0000305 0.0000
 16   -306.8051557992  -0.000000011676 0.00001513  0.00000026  0.0000120 0.0000
                 **** Energy Check signals convergence ****

               *****************************************************
               *                     SUCCESS                       *
               *           SCF CONVERGED AFTER  17 CYCLES          *
               *****************************************************

Old exchange energy                            =    -22.159464223 Eh
New exchange energy                            =    -22.159431846 Eh
Exchange energy change after final integration =      0.000032378 Eh
Total energy after final integration           =   -306.805123418 Eh
Final COS-X integration done in                =     1.237 sec

----------------
TOTAL SCF ENERGY
----------------

Total Energy       :         -306.80512342 Eh           -8348.59184 eV

Components:
Nuclear Repulsion  :          258.69174038 Eh            7039.36013 eV
Electronic Energy  :         -565.49686380 Eh          -15387.95197 eV
One Electron Energy:         -926.69586218 Eh          -25216.67640 eV
Two Electron Energy:          361.19899838 Eh            9828.72443 eV
Max COSX asymmetry :            0.00000115 Eh               0.00003 eV

Virial components:
Potential Energy   :         -611.88385975 Eh          -16650.20630 eV
Kinetic Energy     :          305.07873633 Eh            8301.61446 eV
Virial Ratio       :            2.00565882


DFT components:
N(Alpha)           :       25.000018655955 electrons
N(Beta)            :       24.000018408183 electrons
N(Total)           :       49.000037064139 electrons
E(XC)              :      -20.650921755740 Eh       
DFET-embed. en.    :        0.000000000000 Eh       

---------------
SCF CONVERGENCE
---------------

  Last Energy change         ...    3.1305e-09  Tolerance :   1.0000e-08
  Last MAX-Density change    ...    0.0000e+00  Tolerance :   1.0000e-07
  Last RMS-Density change    ...    0.0000e+00  Tolerance :   5.0000e-09
  Last DIIS Error            ...    6.6622e-06  Tolerance :   5.0000e-07

             **** THE GBW FILE WAS UPDATED (freq.gbw) ****
             **** DENSITY freq.scfp WAS UPDATED ****
             **** ENERGY FILE WAS UPDATED (freq.en.tmp) ****
----------------------
UHF SPIN CONTAMINATION
----------------------

Warning: in a DFT calculation there is little theoretical justification to 
         calculate <S**2> as in Hartree-Fock theory. We will do it anyways
         but you should keep in mind that the values have only limited relevance

Expectation value of <S**2>     :     0.793284
Ideal value S*(S+1) for S=0.5   :     0.750000
Deviation                       :     0.043284

             **** THE GBW FILE WAS UPDATED (freq.gbw) ****
             **** DENSITY freq.scfp WAS UPDATED ****
----------------
ORBITAL ENERGIES
----------------
                 SPIN UP ORBITALS
  NO   OCC          E(Eh)            E(eV) 
   0   1.0000     -19.624208      -534.0019 
   1   1.0000     -10.620167      -288.9894 
   2   1.0000     -10.586349      -288.0692 
   3   1.0000     -10.572015      -287.6792 
   4   1.0000     -10.571983      -287.6783 
   5   1.0000     -10.570955      -287.6503 
   6   1.0000     -10.570945      -287.6500 
   7   1.0000      -1.155313       -31.4377 
   8   1.0000      -0.968672       -26.3589 
   9   1.0000      -0.869536       -23.6613 
  10   1.0000      -0.835765       -22.7423 
  11   1.0000      -0.712616       -19.3913 
  12   1.0000      -0.688728       -18.7412 
  13   1.0000      -0.608105       -16.5474 
  14   1.0000      -0.555870       -15.1260 
  15   1.0000      -0.554158       -15.0794 
  16   1.0000      -0.514389       -13.9972 
  17   1.0000      -0.507049       -13.7975 
  18   1.0000      -0.503466       -13.7000 
  19   1.0000      -0.450014       -12.2455 
  20   1.0000      -0.442346       -12.0369 
  21   1.0000      -0.429861       -11.6971 
  22   1.0000      -0.343275        -9.3410 
  23   1.0000      -0.342426        -9.3179 
  24   1.0000      -0.286377        -7.7927 
  25   0.0000      -0.003142        -0.0855 
  26   0.0000       0.017092         0.4651 
  27   0.0000       0.071209         1.9377 
  28   0.0000       0.098463         2.6793 
  29   0.0000       0.109548         2.9810 
  30   0.0000       0.128186         3.4881 
  31   0.0000       0.134554         3.6614 
  32   0.0000       0.152852         4.1593 
  33   0.0000       0.167167         4.5488 
  34   0.0000       0.194243         5.2856 
  35   0.0000       0.218127         5.9355 
  36   0.0000       0.224917         6.1203 
  37   0.0000       0.227022         6.1776 
  38   0.0000       0.246330         6.7030 
  39   0.0000       0.254090         6.9142 
  40   0.0000       0.268889         7.3168 
  41   0.0000       0.274535         7.4705 
  42   0.0000       0.283742         7.7210 
  43   0.0000       0.298288         8.1168 
  44   0.0000       0.350211         9.5297 
  45   0.0000       0.352661         9.5964 
  46   0.0000       0.352946         9.6041 
  47   0.0000       0.360711         9.8155 
  48   0.0000       0.372288        10.1305 
  49   0.0000       0.383644        10.4395 
  50   0.0000       0.409426        11.1410 
  51   0.0000       0.423236        11.5168 
  52   0.0000       0.429331        11.6827 
  53   0.0000       0.434062        11.8114 
  54   0.0000       0.444126        12.0853 
  55   0.0000       0.446023        12.1369 
  56   0.0000       0.451496        12.2858 
  57   0.0000       0.487192        13.2572 
  58   0.0000       0.490747        13.3539 
  59   0.0000       0.501963        13.6591 
  60   0.0000       0.514008        13.9869 
  61   0.0000       0.514874        14.0104 
  62   0.0000       0.532734        14.4964 
  63   0.0000       0.545474        14.8431 
  64   0.0000       0.631106        17.1733 
  65   0.0000       0.651470        17.7274 
  66   0.0000       0.652737        17.7619 
  67   0.0000       0.661368        17.9967 
  68   0.0000       0.681515        18.5450 
  69   0.0000       0.704507        19.1706 
  70   0.0000       0.752161        20.4673 
  71   0.0000       0.755608        20.5611 
  72   0.0000       0.764147        20.7935 
  73   0.0000       0.790281        21.5047 
  74   0.0000       0.794680        21.6244 
  75   0.0000       0.818237        22.2654 
  76   0.0000       0.835192        22.7267 
  77   0.0000       0.886183        24.1143 
  78   0.0000       0.892300        24.2807 
  79   0.0000       0.893307        24.3081 
  80   0.0000       0.894803        24.3488 
  81   0.0000       0.907362        24.6906 
  82   0.0000       1.018340        27.7104 
  83   0.0000       1.029229        28.0067 
  84   0.0000       1.053080        28.6558 
  85   0.0000       1.059521        28.8310 
  86   0.0000       1.072720        29.1902 
  87   0.0000       1.087813        29.6009 
  88   0.0000       1.176080        32.0028 
  89   0.0000       1.184616        32.2350 
  90   0.0000       1.189477        32.3673 
  91   0.0000       1.205794        32.8113 
  92   0.0000       1.220602        33.2143 
  93   0.0000       1.223110        33.2825 
  94   0.0000       1.236472        33.6461 
  95   0.0000       1.278310        34.7846 
  96   0.0000       1.298231        35.3266 
  97   0.0000       1.330843        36.2141 
  98   0.0000       1.398291        38.0494 
  99   0.0000       1.417767        38.5794 
 100   0.0000       1.426971        38.8299 
 101   0.0000       1.460080        39.7308 
 102   0.0000       1.462792        39.8046 
 103   0.0000       1.466930        39.9172 
 104   0.0000       1.520138        41.3651 
 105   0.0000       1.525828        41.5199 
 106   0.0000       1.553388        42.2698 
 107   0.0000       1.562156        42.5084 
 108   0.0000       1.570588        42.7379 
 109   0.0000       1.649426        44.8832 
 110   0.0000       1.660067        45.1727 
 111   0.0000       1.662652        45.2431 
 112   0.0000       1.670175        45.4478 
 113   0.0000       1.706569        46.4381 
 114   0.0000       1.721132        46.8344 
 115   0.0000       1.760153        47.8962 
 116   0.0000       1.771572        48.2069 
 117   0.0000       1.819009        49.4977 
 118   0.0000       1.828404        49.7534 
 119   0.0000       1.852305        50.4038 
 120   0.0000       1.921488        52.2863 
 121   0.0000       1.930784        52.5393 
 122   0.0000       1.939517        52.7769 
 123   0.0000       2.035409        55.3863 
 124   0.0000       2.056032        55.9475 
 125   0.0000       2.062013        56.1102 
 126   0.0000       2.067885        56.2700 
 127   0.0000       2.116984        57.6061 
 128   0.0000       2.119680        57.6794 
 129   0.0000       2.140971        58.2588 
 130   0.0000       2.206287        60.0361 
 131   0.0000       2.244029        61.0631 
 132   0.0000       2.247849        61.1671 
 133   0.0000       2.267549        61.7032 
 134   0.0000       2.332801        63.4787 
 135   0.0000       2.380235        64.7695 
 136   0.0000       2.427462        66.0546 
 137   0.0000       2.490699        67.7754 
 138   0.0000       2.499991        68.0282 
 139   0.0000       2.517316        68.4996 
 140   0.0000       2.530775        68.8659 
 141   0.0000       2.556607        69.5688 
 142   0.0000       2.562752        69.7360 
 143   0.0000       2.568896        69.9032 
 144   0.0000       2.632022        71.6210 
 145   0.0000       2.632686        71.6390 
 146   0.0000       2.638098        71.7863 
 147   0.0000       2.649805        72.1049 
 148   0.0000       2.656690        72.2922 
 149   0.0000       2.661124        72.4129 
 150   0.0000       2.711235        73.7765 
 151   0.0000       2.728324        74.2415 
 152   0.0000       2.742466        74.6263 
 153   0.0000       2.742817        74.6359 
 154   0.0000       2.762982        75.1846 
 155   0.0000       2.789175        75.8973 
 156   0.0000       2.801613        76.2358 
 157   0.0000       2.815811        76.6221 
 158   0.0000       2.836317        77.1801 
 159   0.0000       2.855932        77.7139 
 160   0.0000       2.885175        78.5096 
 161   0.0000       2.887992        78.5863 
 162   0.0000       2.987702        81.2995 
 163   0.0000       3.004602        81.7594 
 164   0.0000       3.022370        82.2429 
 165   0.0000       3.022962        82.2590 
 166   0.0000       3.077239        83.7359 
 167   0.0000       3.081715        83.8577 
 168   0.0000       3.083817        83.9149 
 169   0.0000       3.091007        84.1106 
 170   0.0000       3.104661        84.4821 
 171   0.0000       3.131667        85.2170 
 172   0.0000       3.155401        85.8628 
 173   0.0000       3.157052        85.9077 
 174   0.0000       3.193482        86.8991 
 175   0.0000       3.196585        86.9835 
 176   0.0000       3.221916        87.6728 
 177   0.0000       3.237958        88.1093 
 178   0.0000       3.260337        88.7183 
 179   0.0000       3.276917        89.1695 
 180   0.0000       3.297783        89.7372 
 181   0.0000       3.325246        90.4845 
 182   0.0000       3.368429        91.6596 
 183   0.0000       3.394566        92.3708 
 184   0.0000       3.404462        92.6401 
 185   0.0000       3.404539        92.6422 
 186   0.0000       3.421864        93.1137 
 187   0.0000       3.434188        93.4490 
 188   0.0000       3.441338        93.6436 
 189   0.0000       3.444063        93.7177 
 190   0.0000       3.513192        95.5988 
 191   0.0000       3.554590        96.7253 
 192   0.0000       3.596358        97.8619 
 193   0.0000       3.667164        99.7886 
 194   0.0000       3.694306       100.5272 
 195   0.0000       3.717802       101.1665 
 196   0.0000       3.726546       101.4045 
 197   0.0000       3.770858       102.6103 
 198   0.0000       3.883257       105.6688 
 199   0.0000       3.927898       106.8835 
 200   0.0000       3.934664       107.0676 
 201   0.0000       3.969012       108.0023 
 202   0.0000       3.972452       108.0959 
 203   0.0000       3.978066       108.2487 
 204   0.0000       4.002837       108.9227 
 205   0.0000       4.025924       109.5510 
 206   0.0000       4.103218       111.6542 
 207   0.0000       4.105694       111.7216 
 208   0.0000       4.126734       112.2942 
 209   0.0000       4.127731       112.3213 
 210   0.0000       4.144143       112.7679 
 211   0.0000       4.184356       113.8621 
 212   0.0000       4.210769       114.5809 
 213   0.0000       4.428036       120.4930 
 214   0.0000       4.451471       121.1307 
 215   0.0000       4.495638       122.3325 
 216   0.0000       4.551108       123.8419 
 217   0.0000       4.558302       124.0377 
 218   0.0000       4.613608       125.5427 
 219   0.0000       4.713024       128.2479 
 220   0.0000       4.734557       128.8339 
 221   0.0000       4.766368       129.6995 
 222   0.0000       4.973398       135.3330 
 223   0.0000       4.977535       135.4456 
 224   0.0000       5.103421       138.8712 
 225   0.0000       5.134111       139.7063 
 226   0.0000       5.216095       141.9372 
 227   0.0000       5.226871       142.2304 
 228   0.0000       5.237357       142.5157 
 229   0.0000       5.507504       149.8668 
 230   0.0000       5.536223       150.6483 
 231   0.0000       5.710193       155.3823 
 232   0.0000       5.989650       162.9867 
 233   0.0000       6.277733       170.8258 
 234   0.0000       6.353196       172.8793 
 235   0.0000       6.506093       177.0398 
 236   0.0000       6.539904       177.9598 
 237   0.0000       6.770925       184.2462 
 238   0.0000       7.009327       190.7335 
 239   0.0000       7.027972       191.2408 
 240   0.0000      22.084184       600.9412 
 241   0.0000      22.532212       613.1327 
 242   0.0000      22.581609       614.4768 
 243   0.0000      22.676479       617.0584 
 244   0.0000      22.855486       621.9294 
 245   0.0000      23.315978       634.4600 
 246   0.0000      44.039457      1198.3745 

                 SPIN DOWN ORBITALS
  NO   OCC          E(Eh)            E(eV) 
   0   1.0000     -19.616448      -533.7907 
   1   1.0000     -10.621186      -289.0172 
   2   1.0000     -10.584061      -288.0069 
   3   1.0000     -10.572285      -287.6865 
   4   1.0000     -10.572247      -287.6855 
   5   1.0000     -10.570049      -287.6256 
   6   1.0000     -10.570032      -287.6252 
   7   1.0000      -1.134141       -30.8616 
   8   1.0000      -0.961923       -26.1753 
   9   1.0000      -0.866396       -23.5758 
  10   1.0000      -0.823143       -22.3989 
  11   1.0000      -0.708855       -19.2889 
  12   1.0000      -0.684056       -18.6141 
  13   1.0000      -0.601670       -16.3723 
  14   1.0000      -0.551180       -14.9984 
  15   1.0000      -0.548657       -14.9297 
  16   1.0000      -0.512611       -13.9488 
  17   1.0000      -0.496893       -13.5211 
  18   1.0000      -0.468585       -12.7509 
  19   1.0000      -0.445142       -12.1129 
  20   1.0000      -0.438089       -11.9210 
  21   1.0000      -0.382560       -10.4100 
  22   1.0000      -0.331366        -9.0169 
  23   1.0000      -0.328773        -8.9464 
  24   0.0000      -0.114936        -3.1276 
  25   0.0000       0.012258         0.3336 
  26   0.0000       0.048053         1.3076 
  27   0.0000       0.071875         1.9558 
  28   0.0000       0.098898         2.6911 
  29   0.0000       0.110837         3.0160 
  30   0.0000       0.128286         3.4908 
  31   0.0000       0.135778         3.6947 
  32   0.0000       0.150963         4.1079 
  33   0.0000       0.177944         4.8421 
  34   0.0000       0.193084         5.2541 
  35   0.0000       0.218676         5.9505 
  36   0.0000       0.222451         6.0532 
  37   0.0000       0.223262         6.0753 
  38   0.0000       0.242887         6.6093 
  39   0.0000       0.254302         6.9199 
  40   0.0000       0.264815         7.2060 
  41   0.0000       0.273963         7.4549 
  42   0.0000       0.278378         7.5751 
  43   0.0000       0.299411         8.1474 
  44   0.0000       0.347038         9.4434 
  45   0.0000       0.348433         9.4814 
  46   0.0000       0.353695         9.6245 
  47   0.0000       0.362053         9.8520 
  48   0.0000       0.371813        10.1176 
  49   0.0000       0.384296        10.4572 
  50   0.0000       0.411591        11.2000 
  51   0.0000       0.419966        11.4279 
  52   0.0000       0.431887        11.7523 
  53   0.0000       0.434291        11.8177 
  54   0.0000       0.441909        12.0250 
  55   0.0000       0.445375        12.1193 
  56   0.0000       0.449854        12.2412 
  57   0.0000       0.492342        13.3973 
  58   0.0000       0.496928        13.5221 
  59   0.0000       0.499852        13.6017 
  60   0.0000       0.515440        14.0258 
  61   0.0000       0.518391        14.1061 
  62   0.0000       0.532525        14.4907 
  63   0.0000       0.546726        14.8772 
  64   0.0000       0.635019        17.2797 
  65   0.0000       0.649382        17.6706 
  66   0.0000       0.657608        17.8944 
  67   0.0000       0.659025        17.9330 
  68   0.0000       0.686936        18.6925 
  69   0.0000       0.705927        19.2092 
  70   0.0000       0.751749        20.4561 
  71   0.0000       0.754001        20.5174 
  72   0.0000       0.758166        20.6307 
  73   0.0000       0.792607        21.5679 
  74   0.0000       0.800275        21.7766 
  75   0.0000       0.821098        22.3432 
  76   0.0000       0.840038        22.8586 
  77   0.0000       0.891435        24.2572 
  78   0.0000       0.892847        24.2956 
  79   0.0000       0.893351        24.3093 
  80   0.0000       0.899940        24.4886 
  81   0.0000       0.906761        24.6742 
  82   0.0000       1.021578        27.7985 
  83   0.0000       1.028439        27.9852 
  84   0.0000       1.056665        28.7533 
  85   0.0000       1.060776        28.8652 
  86   0.0000       1.072493        29.1840 
  87   0.0000       1.091195        29.6929 
  88   0.0000       1.182075        32.1659 
  89   0.0000       1.188642        32.3446 
  90   0.0000       1.193340        32.4724 
  91   0.0000       1.208530        32.8858 
  92   0.0000       1.223842        33.3024 
  93   0.0000       1.224317        33.3153 
  94   0.0000       1.244221        33.8570 
  95   0.0000       1.279933        34.8287 
  96   0.0000       1.301346        35.4114 
  97   0.0000       1.337918        36.4066 
  98   0.0000       1.398988        38.0684 
  99   0.0000       1.421196        38.6727 
 100   0.0000       1.438818        39.1522 
 101   0.0000       1.467600        39.9354 
 102   0.0000       1.473407        40.0935 
 103   0.0000       1.478762        40.2391 
 104   0.0000       1.527763        41.5726 
 105   0.0000       1.533915        41.7400 
 106   0.0000       1.551245        42.2115 
 107   0.0000       1.571301        42.7573 
 108   0.0000       1.571977        42.7757 
 109   0.0000       1.654650        45.0253 
 110   0.0000       1.666985        45.3610 
 111   0.0000       1.668974        45.4151 
 112   0.0000       1.686184        45.8834 
 113   0.0000       1.710863        46.5550 
 114   0.0000       1.726899        46.9913 
 115   0.0000       1.764087        48.0032 
 116   0.0000       1.778369        48.3919 
 117   0.0000       1.827290        49.7231 
 118   0.0000       1.835753        49.9534 
 119   0.0000       1.861502        50.6540 
 120   0.0000       1.926260        52.4162 
 121   0.0000       1.939736        52.7829 
 122   0.0000       1.948438        53.0197 
 123   0.0000       2.040077        55.5133 
 124   0.0000       2.065756        56.2121 
 125   0.0000       2.065902        56.2161 
 126   0.0000       2.069661        56.3183 
 127   0.0000       2.123592        57.7859 
 128   0.0000       2.127838        57.9014 
 129   0.0000       2.150518        58.5186 
 130   0.0000       2.208529        60.0971 
 131   0.0000       2.249557        61.2135 
 132   0.0000       2.251096        61.2554 
 133   0.0000       2.271946        61.8228 
 134   0.0000       2.353678        64.0468 
 135   0.0000       2.388159        64.9851 
 136   0.0000       2.435341        66.2690 
 137   0.0000       2.495327        67.9013 
 138   0.0000       2.504663        68.1553 
 139   0.0000       2.525364        68.7186 
 140   0.0000       2.538501        69.0761 
 141   0.0000       2.564570        69.7855 
 142   0.0000       2.575451        70.0816 
 143   0.0000       2.575907        70.0940 
 144   0.0000       2.638625        71.8006 
 145   0.0000       2.642905        71.9171 
 146   0.0000       2.653110        72.1948 
 147   0.0000       2.654166        72.2235 
 148   0.0000       2.662603        72.4531 
 149   0.0000       2.688274        73.1516 
 150   0.0000       2.730910        74.3119 
 151   0.0000       2.736290        74.4582 
 152   0.0000       2.749092        74.8066 
 153   0.0000       2.754877        74.9640 
 154   0.0000       2.778199        75.5986 
 155   0.0000       2.802114        76.2494 
 156   0.0000       2.804413        76.3120 
 157   0.0000       2.838356        77.2356 
 158   0.0000       2.851382        77.5901 
 159   0.0000       2.864484        77.9466 
 160   0.0000       2.887321        78.5680 
 161   0.0000       2.906495        79.0898 
 162   0.0000       2.994554        81.4859 
 163   0.0000       3.013026        81.9886 
 164   0.0000       3.026092        82.3441 
 165   0.0000       3.038059        82.6698 
 166   0.0000       3.082485        83.8787 
 167   0.0000       3.090507        84.0970 
 168   0.0000       3.092696        84.1565 
 169   0.0000       3.096885        84.2705 
 170   0.0000       3.114775        84.7573 
 171   0.0000       3.136935        85.3603 
 172   0.0000       3.164421        86.1083 
 173   0.0000       3.170270        86.2674 
 174   0.0000       3.204110        87.1883 
 175   0.0000       3.207344        87.2763 
 176   0.0000       3.246695        88.3471 
 177   0.0000       3.253032        88.5195 
 178   0.0000       3.267908        88.9243 
 179   0.0000       3.294656        89.6521 
 180   0.0000       3.315028        90.2065 
 181   0.0000       3.337864        90.8279 
 182   0.0000       3.372951        91.7827 
 183   0.0000       3.403642        92.6178 
 184   0.0000       3.414655        92.9175 
 185   0.0000       3.416570        92.9696 
 186   0.0000       3.433848        93.4398 
 187   0.0000       3.446277        93.7780 
 188   0.0000       3.453682        93.9795 
 189   0.0000       3.454378        93.9984 
 190   0.0000       3.519842        95.7798 
 191   0.0000       3.565421        97.0200 
 192   0.0000       3.608710        98.1980 
 193   0.0000       3.680201       100.1434 
 194   0.0000       3.706072       100.8474 
 195   0.0000       3.728844       101.4670 
 196   0.0000       3.735721       101.6541 
 197   0.0000       3.780138       102.8628 
 198   0.0000       3.888789       105.8193 
 199   0.0000       3.938250       107.1652 
 200   0.0000       3.945854       107.3721 
 201   0.0000       3.976777       108.2136 
 202   0.0000       3.982194       108.3610 
 203   0.0000       3.993548       108.6700 
 204   0.0000       4.031505       109.7028 
 205   0.0000       4.048925       110.1769 
 206   0.0000       4.116008       112.0023 
 207   0.0000       4.120929       112.1362 
 208   0.0000       4.140276       112.6626 
 209   0.0000       4.144854       112.7872 
 210   0.0000       4.154571       113.0516 
 211   0.0000       4.195864       114.1753 
 212   0.0000       4.221166       114.8638 
 213   0.0000       4.450451       121.1029 
 214   0.0000       4.467463       121.5658 
 215   0.0000       4.511527       122.7649 
 216   0.0000       4.566327       124.2561 
 217   0.0000       4.581317       124.6640 
 218   0.0000       4.630054       125.9902 
 219   0.0000       4.726367       128.6110 
 220   0.0000       4.768477       129.7568 
 221   0.0000       4.779471       130.0560 
 222   0.0000       4.987402       135.7141 
 223   0.0000       4.989355       135.7672 
 224   0.0000       5.118233       139.2742 
 225   0.0000       5.159950       140.4094 
 226   0.0000       5.240442       142.5997 
 227   0.0000       5.250588       142.8758 
 228   0.0000       5.261366       143.1690 
 229   0.0000       5.517534       150.1397 
 230   0.0000       5.558074       151.2429 
 231   0.0000       5.729005       155.8941 
 232   0.0000       6.020030       163.8134 
 233   0.0000       6.292334       171.2231 
 234   0.0000       6.426042       174.8615 
 235   0.0000       6.515854       177.3054 
 236   0.0000       6.597427       179.5251 
 237   0.0000       6.826270       185.7522 
 238   0.0000       7.019288       191.0045 
 239   0.0000       7.052323       191.9035 
 240   0.0000      22.086124       600.9940 
 241   0.0000      22.534400       613.1922 
 242   0.0000      22.587780       614.6447 
 243   0.0000      22.678632       617.1169 
 244   0.0000      22.856446       621.9555 
 245   0.0000      23.317460       634.5003 
 246   0.0000      44.039680      1198.3806 

                    ********************************
                    * MULLIKEN POPULATION ANALYSIS *
                    ********************************

--------------------------------------------
MULLIKEN ATOMIC CHARGES AND SPIN POPULATIONS
--------------------------------------------
   0 H :    0.156780    0.002609
   1 C :   -0.142076   -0.201758
   2 C :   -0.095690    0.455471
   3 H :    0.161170   -0.012772
   4 C :   -0.142156   -0.201758
   5 H :    0.156730    0.002609
   6 C :   -0.162199    0.345229
   7 H :    0.164144   -0.008932
   8 C :    0.238275   -0.143213
   9 C :   -0.162259    0.345227
  10 H :    0.164138   -0.008932
  11 O :   -0.336858    0.426218
Sum of atomic charges         :    0.0000000
Sum of atomic spin populations:    1.0000000

-----------------------------------------------------
MULLIKEN REDUCED ORBITAL CHARGES AND SPIN POPULATIONS
-----------------------------------------------------
CHARGE
  0 H s       :     0.822976  s :     0.822976
      pz      :     0.010809  p :     0.020244
      px      :     0.003898
      py      :     0.005538
  1 C s       :     3.210395  s :     3.210395
      pz      :     0.978343  p :     2.864552
      px      :     0.967202
      py      :     0.919006
      dz2     :     0.012014  d :     0.060927
      dxz     :     0.008744
      dyz     :     0.017160
      dx2y2   :     0.006650
      dxy     :     0.016358
      f0      :     0.001209  f :     0.006202
      f+1     :     0.000571
      f-1     :     0.000903
      f+2     :     0.001234
      f-2     :     0.000297
      f+3     :     0.001325
      f-3     :     0.000664
  2 C s       :     3.241862  s :     3.241862
      pz      :     0.884080  p :     2.783340
      px      :     0.895865
      py      :     1.003395
      dz2     :     0.013057  d :     0.064429
      dxz     :     0.021534
      dyz     :     0.015058
      dx2y2   :     0.008522
      dxy     :     0.006257
      f0      :     0.001404  f :     0.006059
      f+1     :     0.000973
      f-1     :     0.001007
      f+2     :     0.000779
      f-2     :     0.000879
      f+3     :     0.000378
      f-3     :     0.000639
  3 H s       :     0.818618  s :     0.818618
      pz      :     0.002866  p :     0.020212
      px      :     0.003749
      py      :     0.013597
  4 C s       :     3.210564  s :     3.210564
      pz      :     0.978236  p :     2.864472
      px      :     0.967202
      py      :     0.919034
      dz2     :     0.012021  d :     0.060917
      dxz     :     0.008744
      dyz     :     0.017147
      dx2y2   :     0.006647
      dxy     :     0.016358
      f0      :     0.001209  f :     0.006202
      f+1     :     0.000571
      f-1     :     0.000903
      f+2     :     0.001234
      f-2     :     0.000297
      f+3     :     0.001325
      f-3     :     0.000664
  5 H s       :     0.823025  s :     0.823025
      pz      :     0.010810  p :     0.020245
      px      :     0.003898
      py      :     0.005538
  6 C s       :     3.260854  s :     3.260854
      pz      :     0.988688  p :     2.837430
      px      :     0.912998
      py      :     0.935744
      dz2     :     0.011593  d :     0.057940
      dxz     :     0.006029
      dyz     :     0.018784
      dx2y2   :     0.004285
      dxy     :     0.017249
      f0      :     0.000989  f :     0.005975
      f+1     :     0.000324
      f-1     :     0.001032
      f+2     :     0.001329
      f-2     :     0.000303
      f+3     :     0.001345
      f-3     :     0.000652
  7 H s       :     0.815424  s :     0.815424
      pz      :     0.010820  p :     0.020433
      px      :     0.003749
      py      :     0.005863
  8 C s       :     3.058177  s :     3.058177
      pz      :     0.897462  p :     2.502040
      px      :     0.837558
      py      :     0.767021
      dz2     :     0.014256  d :     0.186433
      dxz     :     0.016903
      dyz     :     0.092953
      dx2y2   :     0.016032
      dxy     :     0.046289
      f0      :     0.003402  f :     0.015075
      f+1     :     0.000697
      f-1     :     0.001460
      f+2     :     0.003843
      f-2     :     0.000790
      f+3     :     0.003093
      f-3     :     0.001791
  9 C s       :     3.260930  s :     3.260930
      pz      :     0.988671  p :     2.837395
      px      :     0.912998
      py      :     0.935726
      dz2     :     0.011594  d :     0.057959
      dxz     :     0.006029
      dyz     :     0.018798
      dx2y2   :     0.004290
      dxy     :     0.017248
      f0      :     0.000989  f :     0.005975
      f+1     :     0.000324
      f-1     :     0.001032
      f+2     :     0.001329
      f-2     :     0.000303
      f+3     :     0.001345
      f-3     :     0.000652
 10 H s       :     0.815428  s :     0.815428
      pz      :     0.010820  p :     0.020433
      px      :     0.003749
      py      :     0.005863
 11 O s       :     3.855765  s :     3.855765
      pz      :     1.847768  p :     4.450103
      px      :     1.273197
      py      :     1.329138
      dz2     :     0.003381  d :     0.029308
      dxz     :     0.000039
      dyz     :     0.006806
      dx2y2   :     0.008559
      dxy     :     0.010522
      f0      :     0.000219  f :     0.001682
      f+1     :     0.000094
      f-1     :     0.000380
      f+2     :     0.000235
      f-2     :     0.000004
      f+3     :     0.000395
      f-3     :     0.000356

SPIN
  0 H s       :     0.003209  s :     0.003209
      pz      :    -0.000008  p :    -0.000600
      px      :    -0.000538
      py      :    -0.000054
  1 C s       :    -0.057407  s :    -0.057407
      pz      :    -0.025203  p :    -0.158974
      px      :    -0.110016
      py      :    -0.023755
      dz2     :     0.000302  d :     0.014021
      dxz     :     0.003228
      dyz     :    -0.000583
      dx2y2   :     0.000900
      dxy     :     0.010175
      f0      :     0.000028  f :     0.000601
      f+1     :     0.000240
      f-1     :     0.000028
      f+2     :     0.000022
      f-2     :     0.000173
      f+3     :     0.000099
      f-3     :     0.000011
  2 C s       :     0.064957  s :     0.064957
      pz      :     0.033334  p :     0.395557
      px      :     0.335050
      py      :     0.027173
      dz2     :    -0.000279  d :    -0.004848
      dxz     :    -0.002207
      dyz     :     0.000190
      dx2y2   :    -0.001163
      dxy     :    -0.001389
      f0      :     0.000052  f :    -0.000194
      f+1     :    -0.000006
      f-1     :    -0.000159
      f+2     :     0.000037
      f-2     :    -0.000067
      f+3     :    -0.000044
      f-3     :    -0.000008
  3 H s       :    -0.014506  s :    -0.014506
      pz      :     0.000059  p :     0.001734
      px      :     0.001678
      py      :    -0.000003
  4 C s       :    -0.057408  s :    -0.057408
      pz      :    -0.025202  p :    -0.158973
      px      :    -0.110016
      py      :    -0.023755
      dz2     :     0.000302  d :     0.014021
      dxz     :     0.003228
      dyz     :    -0.000583
      dx2y2   :     0.000900
      dxy     :     0.010175
      f0      :     0.000028  f :     0.000601
      f+1     :     0.000240
      f-1     :     0.000028
      f+2     :     0.000022
      f-2     :     0.000173
      f+3     :     0.000099
      f-3     :     0.000011
  5 H s       :     0.003208  s :     0.003208
      pz      :    -0.000008  p :    -0.000600
      px      :    -0.000538
      py      :    -0.000054
  6 C s       :     0.053796  s :     0.053796
      pz      :     0.021919  p :     0.296759
      px      :     0.255984
      py      :     0.018856
      dz2     :    -0.000838  d :    -0.005193
      dxz     :     0.000099
      dyz     :    -0.000204
      dx2y2   :    -0.000638
      dxy     :    -0.003612
      f0      :     0.000035  f :    -0.000133
      f+1     :     0.000054
      f-1     :    -0.000125
      f+2     :     0.000009
      f-2     :    -0.000021
      f+3     :    -0.000047
      f-3     :    -0.000038
  7 H s       :    -0.010170  s :    -0.010170
      pz      :     0.000022  p :     0.001238
      px      :     0.001180
      py      :     0.000037
  8 C s       :    -0.056128  s :    -0.056128
      pz      :    -0.024686  p :    -0.115215
      px      :    -0.075708
      py      :    -0.014821
      dz2     :     0.002659  d :     0.026907
      dxz     :     0.002361
      dyz     :    -0.002711
      dx2y2   :     0.000754
      dxy     :     0.023844
      f0      :     0.000017  f :     0.001224
      f+1     :     0.000562
      f-1     :    -0.000029
      f+2     :    -0.000003
      f-2     :     0.000144
      f+3     :     0.000555
      f-3     :    -0.000023
  9 C s       :     0.053796  s :     0.053796
      pz      :     0.021918  p :     0.296757
      px      :     0.255983
      py      :     0.018856
      dz2     :    -0.000838  d :    -0.005193
      dxz     :     0.000099
      dyz     :    -0.000204
      dx2y2   :    -0.000639
      dxy     :    -0.003612
      f0      :     0.000035  f :    -0.000133
      f+1     :     0.000054
      f-1     :    -0.000125
      f+2     :     0.000009
      f-2     :    -0.000021
      f+3     :    -0.000047
      f-3     :    -0.000038
 10 H s       :    -0.010170  s :    -0.010170
      pz      :     0.000022  p :     0.001238
      px      :     0.001180
      py      :     0.000037
 11 O s       :     0.009748  s :     0.009748
      pz      :     0.004990  p :     0.418087
      px      :     0.403209
      py      :     0.009888
      dz2     :     0.000009  d :    -0.001522
      dxz     :    -0.000007
      dyz     :    -0.000028
      dx2y2   :     0.000412
      dxy     :    -0.001908
      f0      :     0.000018  f :    -0.000094
      f+1     :    -0.000007
      f-1     :     0.000020
      f+2     :    -0.000021
      f-2     :     0.000001
      f+3     :    -0.000056
      f-3     :    -0.000050


                     *******************************
                     * LOEWDIN POPULATION ANALYSIS *
                     *******************************

-------------------------------------------
LOEWDIN ATOMIC CHARGES AND SPIN POPULATIONS
-------------------------------------------
   0 H :    0.148782    0.000019
   1 C :   -0.143760   -0.036274
   2 C :   -0.091245    0.274598
   3 H :    0.148050   -0.001353
   4 C :   -0.143761   -0.036274
   5 H :    0.148782    0.000019
   6 C :   -0.068851    0.200282
   7 H :    0.152958   -0.001645
   8 C :   -0.334994    0.026876
   9 C :   -0.068852    0.200281
  10 H :    0.152958   -0.001645
  11 O :    0.099934    0.375117

----------------------------------------------------
LOEWDIN REDUCED ORBITAL CHARGES AND SPIN POPULATIONS
----------------------------------------------------
CHARGE
  0 H s       :     0.793155  s :     0.793155
      pz      :     0.028927  p :     0.058063
      px      :     0.012415
      py      :     0.016721
  1 C s       :     2.776365  s :     2.776365
      pz      :     1.008382  p :     2.954936
      px      :     0.887472
      py      :     1.059082
      dz2     :     0.085268  d :     0.371983
      dxz     :     0.027173
      dyz     :     0.152453
      dx2y2   :     0.051943
      dxy     :     0.055146
      f0      :     0.010085  f :     0.040476
      f+1     :     0.003417
      f-1     :     0.006697
      f+2     :     0.008363
      f-2     :     0.002368
      f+3     :     0.004626
      f-3     :     0.004921
  2 C s       :     2.785715  s :     2.785715
      pz      :     1.068014  p :     2.892648
      px      :     0.821953
      py      :     1.002680
      dz2     :     0.135006  d :     0.373752
      dxz     :     0.076225
      dyz     :     0.098525
      dx2y2   :     0.049588
      dxy     :     0.014408
      f0      :     0.011529  f :     0.039130
      f+1     :     0.003404
      f-1     :     0.007298
      f+2     :     0.006916
      f-2     :     0.006959
      f+3     :     0.000532
      f-3     :     0.002492
  3 H s       :     0.793269  s :     0.793269
      pz      :     0.010603  p :     0.058682
      px      :     0.012039
      py      :     0.036040
  4 C s       :     2.776365  s :     2.776365
      pz      :     1.008382  p :     2.954936
      px      :     0.887472
      py      :     1.059082
      dz2     :     0.085268  d :     0.371983
      dxz     :     0.027173
      dyz     :     0.152453
      dx2y2   :     0.051943
      dxy     :     0.055146
      f0      :     0.010085  f :     0.040476
      f+1     :     0.003417
      f-1     :     0.006697
      f+2     :     0.008363
      f-2     :     0.002368
      f+3     :     0.004626
      f-3     :     0.004921
  5 H s       :     0.793155  s :     0.793155
      pz      :     0.028927  p :     0.058063
      px      :     0.012415
      py      :     0.016721
  6 C s       :     2.792409  s :     2.792409
      pz      :     1.000742  p :     2.893402
      px      :     0.835332
      py      :     1.057328
      dz2     :     0.075323  d :     0.345615
      dxz     :     0.020109
      dyz     :     0.144452
      dx2y2   :     0.050984
      dxy     :     0.054747
      f0      :     0.008423  f :     0.037425
      f+1     :     0.002448
      f-1     :     0.006533
      f+2     :     0.008012
      f-2     :     0.002331
      f+3     :     0.004912
      f-3     :     0.004765
  7 H s       :     0.787627  s :     0.787627
      pz      :     0.029941  p :     0.059416
      px      :     0.011965
      py      :     0.017509
  8 C s       :     2.744011  s :     2.744011
      pz      :     1.029963  p :     2.750851
      px      :     0.781056
      py      :     0.939833
      dz2     :     0.140996  d :     0.736466
      dxz     :     0.061684
      dyz     :     0.296417
      dx2y2   :     0.119110
      dxy     :     0.118260
      f0      :     0.027562  f :     0.103666
      f+1     :     0.005392
      f-1     :     0.012487
      f+2     :     0.023798
      f-2     :     0.006015
      f+3     :     0.015009
      f-3     :     0.013404
  9 C s       :     2.792410  s :     2.792410
      pz      :     1.000742  p :     2.893402
      px      :     0.835332
      py      :     1.057328
      dz2     :     0.075324  d :     0.345615
      dxz     :     0.020109
      dyz     :     0.144453
      dx2y2   :     0.050984
      dxy     :     0.054747
      f0      :     0.008424  f :     0.037425
      f+1     :     0.002448
      f-1     :     0.006533
      f+2     :     0.008012
      f-2     :     0.002331
      f+3     :     0.004912
      f-3     :     0.004765
 10 H s       :     0.787627  s :     0.787627
      pz      :     0.029941  p :     0.059416
      px      :     0.011965
      py      :     0.017509
 11 O s       :     3.438070  s :     3.438070
      pz      :     1.703471  p :     4.391826
      px      :     1.211402
      py      :     1.476953
      dz2     :     0.007865  d :     0.064966
      dxz     :     0.000042
      dyz     :     0.019715
      dx2y2   :     0.021808
      dxy     :     0.015535
      f0      :     0.000676  f :     0.005205
      f+1     :     0.000107
      f-1     :     0.000946
      f+2     :     0.001127
      f-2     :     0.000011
      f+3     :     0.001046
      f-3     :     0.001291

SPIN
  0 H s       :     0.002231  s :     0.002231
      pz      :    -0.000269  p :    -0.002212
      px      :    -0.001710
      py      :    -0.000233
  1 C s       :    -0.003290  s :    -0.003290
      pz      :    -0.005530  p :    -0.088752
      px      :    -0.076808
      py      :    -0.006414
      dz2     :     0.001122  d :     0.050414
      dxz     :     0.011947
      dyz     :     0.001796
      dx2y2   :     0.000561
      dxy     :     0.034988
      f0      :     0.000226  f :     0.005354
      f+1     :     0.001830
      f-1     :     0.000138
      f+2     :     0.000176
      f-2     :     0.001299
      f+3     :     0.001585
      f-3     :     0.000100
  2 C s       :     0.006249  s :     0.006249
      pz      :     0.009242  p :     0.286015
      px      :     0.268799
      py      :     0.007974
      dz2     :    -0.001353  d :    -0.015587
      dxz     :    -0.009656
      dyz     :    -0.001545
      dx2y2   :    -0.001332
      dxy     :    -0.001700
      f0      :    -0.000108  f :    -0.002079
      f+1     :    -0.000673
      f-1     :    -0.000252
      f+2     :    -0.000088
      f-2     :    -0.000802
      f+3     :    -0.000047
      f-3     :    -0.000109
  3 H s       :    -0.008675  s :    -0.008675
      pz      :     0.000203  p :     0.007322
      px      :     0.006013
      py      :     0.001107
  4 C s       :    -0.003290  s :    -0.003290
      pz      :    -0.005530  p :    -0.088752
      px      :    -0.076808
      py      :    -0.006414
      dz2     :     0.001122  d :     0.050414
      dxz     :     0.011947
      dyz     :     0.001796
      dx2y2   :     0.000561
      dxy     :     0.034988
      f0      :     0.000226  f :     0.005354
      f+1     :     0.001830
      f-1     :     0.000138
      f+2     :     0.000176
      f-2     :     0.001299
      f+3     :     0.001585
      f-3     :     0.000100
  5 H s       :     0.002231  s :     0.002231
      pz      :    -0.000269  p :    -0.002212
      px      :    -0.001710
      py      :    -0.000234
[...]
     18       0.053876  -0.099519   0.085919  -0.000028  -0.099447  -0.000009
     19       0.000002   0.000019   0.000015   0.087613  -0.000003  -0.120946
     20       0.000011   0.000055   0.000041   0.252664   0.000004   0.292509
     21       0.511087   0.031858  -0.561135   0.000374   0.510916   0.000041
     22       0.000001   0.000042   0.000034   0.191704   0.000007   0.142305
     23       0.000013   0.000073   0.000055   0.331168   0.000011   0.463481
     24      -0.119822   0.244646  -0.000226  -0.000105   0.095649  -0.000008
     25      -0.000006  -0.000041  -0.000030  -0.191867   0.000000  -0.018125
     26      -0.000000  -0.000000   0.000000  -0.000000   0.000000  -0.000001
     27       0.053871  -0.099795  -0.085734   0.000094  -0.099446   0.000011
     28       0.000003   0.000020   0.000014   0.087613  -0.000003  -0.120946
     29      -0.000011  -0.000055  -0.000041  -0.252662  -0.000004  -0.292509
     30       0.511117   0.033704   0.561052  -0.000393   0.510908  -0.000067
     31       0.000002   0.000043   0.000032   0.191703   0.000007   0.142299
     32      -0.000013  -0.000073  -0.000056  -0.331166  -0.000011  -0.463477
     33       0.017165  -0.049416   0.000046   0.000023  -0.022699   0.000002
     34       0.000001  -0.000043  -0.000034  -0.207074   0.000010   0.097109
     35       0.000000   0.000000  -0.000000  -0.000001  -0.000000  -0.000000
                 18         19         20         21         22         23    
      0       0.565458   0.548752  -0.000241   0.000016  -0.000001   0.000009
      1       0.000001   0.000063   0.295026   0.281072  -0.396685  -0.412629
      2       0.000003   0.000082   0.371501   0.086998  -0.256920  -0.254928
      3      -0.096870  -0.089941   0.000038  -0.000002  -0.000000  -0.000001
      4       0.000001  -0.000002  -0.004735   0.034509  -0.054753  -0.051171
      5       0.000001   0.000040   0.176675  -0.054225  -0.050111  -0.038895
      6       0.000035   0.070705  -0.000028   0.000000  -0.000000   0.000001
      7      -0.000015  -0.000033  -0.215158   0.000001   0.000003  -0.023831
      8      -0.000002  -0.000001   0.000003   0.098626   0.102845   0.000007
      9      -0.000191  -0.389865   0.000159  -0.000002   0.000000  -0.000006
     10      -0.000016  -0.000037  -0.231483   0.000001   0.000003  -0.025782
     11      -0.000006  -0.000003   0.000009   0.457695   0.696818   0.000049
     12       0.096787  -0.090026   0.000027   0.000000   0.000000  -0.000001
     13       0.000003  -0.000000  -0.004734  -0.034508   0.054761  -0.051164
     14       0.000000  -0.000040  -0.176678  -0.054223  -0.050114   0.038889
     15      -0.564972   0.549263  -0.000180  -0.000004  -0.000000   0.000011
     16       0.000010   0.000068   0.295029  -0.281075   0.396739  -0.412570
     17      -0.000004  -0.000083  -0.371505   0.087003  -0.256952   0.254891
     18      -0.072818   0.052087  -0.000012  -0.000000  -0.000000   0.000001
     19       0.000004   0.000007   0.066493   0.069832  -0.015402   0.053034
     20      -0.000011   0.000016   0.001132  -0.061859   0.000769  -0.020173
     21       0.407098  -0.330756   0.000082   0.000007   0.000000  -0.000010
     22      -0.000006   0.000078   0.390200   0.501683  -0.133352   0.454806
     23      -0.000016   0.000059   0.192587   0.192813  -0.070728   0.220610
     24      -0.000004  -0.002579  -0.000003   0.000000   0.000000  -0.000000
     25      -0.000001   0.000004  -0.002477   0.000000   0.000003  -0.034488
     26      -0.000002  -0.000001   0.000000   0.064071  -0.005628  -0.000001
     27       0.072867   0.052024  -0.000015   0.000001   0.000000   0.000001
     28       0.000007   0.000009   0.066492  -0.069833   0.015394   0.053036
     29       0.000013  -0.000015  -0.001133  -0.061859   0.000765   0.020173
     30      -0.407396  -0.330393   0.000093  -0.000012   0.000001  -0.000004
     31       0.000008   0.000086   0.390193  -0.501686   0.133281   0.454823
     32       0.000013  -0.000061  -0.192584   0.192814  -0.070694  -0.220618
     33       0.000002   0.002842  -0.000000   0.000000  -0.000000   0.000000
     34       0.000001  -0.000006  -0.001100  -0.000000  -0.000003   0.037283
     35       0.000000   0.000000  -0.000000  -0.011943  -0.001509  -0.000000
                 24         25         26         27         28         29    
      0      -0.000003   0.000003   0.000014   0.000005   0.000006   0.000004
      1      -0.326256   0.140057   0.519107  -0.502220  -0.111968   0.070411
      2      -0.171863   0.071709   0.221140  -0.320126   0.013574  -0.182264
      3       0.000000  -0.000000  -0.000001  -0.000000   0.000001  -0.000000
      4       0.079031   0.092701  -0.039869   0.147328  -0.035959   0.087503
      5       0.067266   0.045198  -0.102381   0.079488   0.049334  -0.139775
      6      -0.000000   0.000000   0.000000  -0.000000  -0.000000   0.000000
      7      -0.000001  -0.000000   0.073090   0.000000  -0.026135  -0.000000
      8      -0.058566  -0.178955   0.000001   0.013315  -0.000003   0.295275
      9       0.000000  -0.000000  -0.000008  -0.000000  -0.000020  -0.000000
     10      -0.000001  -0.000000   0.088812   0.000000  -0.040486  -0.000000
     11       0.083607   0.685687  -0.000000  -0.352863   0.000005  -0.706026
     12      -0.000000  -0.000000  -0.000001  -0.000000  -0.000001  -0.000000
     13      -0.079030  -0.092701  -0.039868  -0.147327  -0.035958  -0.087503
     14       0.067265   0.045198   0.102382   0.079488  -0.049329  -0.139775
     15       0.000001  -0.000000   0.000013  -0.000001   0.000033  -0.000001
     16       0.326259  -0.140051   0.519115   0.502221  -0.111951  -0.070415
     17      -0.171866   0.071705  -0.221144  -0.320126  -0.013578  -0.182263
     18      -0.000000   0.000000   0.000001   0.000000   0.000004  -0.000000
     19       0.019638   0.172137  -0.092723   0.045394   0.163688   0.170538
     20       0.069695   0.043857  -0.096526  -0.115617   0.042459   0.108270
     21      -0.000002   0.000002  -0.000010   0.000003  -0.000055   0.000003
     22       0.437284  -0.330745   0.322951   0.109901  -0.473825  -0.260358
     23       0.328911  -0.269133   0.155436  -0.098226  -0.341405  -0.164598
     24       0.000000  -0.000000  -0.000001  -0.000000  -0.000002   0.000000
     25      -0.000002  -0.000002  -0.128455   0.000005  -0.420733  -0.000008
     26      -0.292724  -0.002306   0.000001   0.187307   0.000009  -0.110562
     27      -0.000000   0.000000   0.000000  -0.000000   0.000002   0.000000
     28      -0.019638  -0.172137  -0.092721  -0.045397   0.163694  -0.170536
     29       0.069696   0.043858   0.096524  -0.115618  -0.042469   0.108269
     30       0.000002  -0.000003  -0.000000  -0.000004  -0.000031  -0.000004
     31      -0.437294   0.330749   0.322947  -0.109895  -0.473837   0.260349
     32       0.328918  -0.269134  -0.155433  -0.098231   0.341406  -0.164592
     33      -0.000000   0.000000   0.000000   0.000000   0.000002  -0.000000
     34       0.000001   0.000002   0.128943  -0.000003   0.220059   0.000004
     35       0.033026  -0.015959  -0.000000  -0.021420  -0.000001  -0.003177
                 30         31         32         33         34         35    
      0      -0.000007  -0.000000   0.000000  -0.000002   0.000001   0.000000
      1      -0.353931  -0.272302   0.325060  -0.123088   0.162433  -0.205092
      2      -0.339508   0.450494  -0.541592   0.213504  -0.264280   0.340032
      3       0.000001   0.000000  -0.000000   0.000000   0.000000  -0.000000
      4       0.324830   0.023398  -0.027792   0.008471  -0.016601   0.020112
      5       0.084960  -0.037969   0.047007  -0.020452   0.023221  -0.030538
      6      -0.000000   0.000000   0.000000   0.000000  -0.000000   0.000000
      7      -0.149668  -0.050342  -0.000004   0.062984   0.000005   0.031826
      8      -0.000001   0.000000  -0.002952   0.000000  -0.003056   0.000000
      9      -0.000003  -0.000000   0.000000   0.000000  -0.000000   0.000000
     10      -0.167150   0.598707   0.000042  -0.716161  -0.000053  -0.347070
     11       0.000001  -0.000000   0.004295  -0.000000   0.003168  -0.000000
     12      -0.000000  -0.000000  -0.000000  -0.000000  -0.000000  -0.000000
     13       0.324832   0.023394   0.027795   0.008469   0.016606   0.020110
     14      -0.084958   0.037962   0.047011   0.020449   0.023230   0.030536
     15       0.000004   0.000000   0.000000  -0.000001  -0.000000  -0.000000
     16      -0.353930  -0.272252  -0.325090  -0.123067  -0.162493  -0.205077
     17       0.339511  -0.450412  -0.541641  -0.213471  -0.264378  -0.340008
     18       0.000001   0.000000  -0.000000   0.000000   0.000000  -0.000000
     19      -0.246372   0.008007   0.012164   0.018135  -0.030689  -0.026530
     20      -0.015246  -0.014453  -0.023046  -0.031473   0.046859   0.039111
     21      -0.000015  -0.000001   0.000000  -0.000001   0.000001   0.000001
     22       0.039953  -0.103184  -0.160681  -0.218645   0.329739   0.275044
     23       0.196764   0.171910   0.267398   0.362291  -0.539511  -0.449779
     24      -0.000001  -0.000000  -0.000000   0.000000  -0.000000   0.000000
     25      -0.137233  -0.000291   0.000000   0.001764  -0.000000  -0.002029
     26       0.000002   0.000000   0.000655   0.000000  -0.002787   0.000000
     27       0.000001   0.000000   0.000000   0.000000  -0.000000  -0.000000
     28      -0.246370   0.008007  -0.012162   0.018132   0.030687  -0.026536
     29       0.015244   0.014455  -0.023042   0.031469   0.046855  -0.039120
     30      -0.000012  -0.000001  -0.000000  -0.000002  -0.000001   0.000001
     31       0.039949  -0.103192   0.160651  -0.218616  -0.329714   0.275111
     32      -0.196763  -0.171924   0.267350  -0.362245  -0.539471   0.449889
     33       0.000001   0.000000  -0.000000   0.000000   0.000000  -0.000000
     34       0.147676   0.000452   0.000000  -0.000374   0.000000   0.000320
     35      -0.000000  -0.000000   0.000028  -0.000000   0.000248  -0.000000


-----------
IR SPECTRUM
-----------

 Mode   freq       eps      Int      T**2         TX        TY        TZ
       cm**-1   L/(mol*cm) km/mol    a.u.
----------------------------------------------------------------------------
  6:    192.71   0.000508    2.57  0.000823  (-0.028684 -0.000001  0.000000)
  7:    383.43   0.000000    0.00  0.000000  ( 0.000002  0.000010  0.000013)
  8:    450.68   0.000818    4.13  0.000566  ( 0.000000 -0.000001  0.023794)
  9:    486.39   0.000126    0.63  0.000081  (-0.008978  0.000032 -0.000002)
 10:    531.61   0.000469    2.37  0.000275  ( 0.000002  0.016590  0.000000)
 11:    597.94   0.000216    1.09  0.000113  ( 0.000000 -0.000003  0.010618)
 12:    656.06   0.008519   43.05  0.004052  ( 0.063656 -0.000003  0.000002)
 13:    813.58   0.008699   43.96  0.003337  ( 0.057764 -0.000006  0.000002)
 14:    817.23   0.000000    0.00  0.000000  (-0.000074 -0.000013 -0.000003)
 15:    819.30   0.000609    3.08  0.000232  (-0.000021  0.015226 -0.000000)
 16:    949.35   0.001538    7.77  0.000505  ( 0.022483 -0.000007 -0.000000)
 17:    986.95   0.000346    1.75  0.000110  (-0.000002 -0.010466  0.000000)
 18:   1006.13   0.000000    0.00  0.000000  ( 0.000004  0.000003  0.000007)
 19:   1014.22   0.000060    0.30  0.000018  ( 0.004284 -0.000032  0.000003)
 20:   1026.16   0.000014    0.07  0.000004  (-0.000003  0.002073  0.000000)
 21:   1102.62   0.001407    7.11  0.000398  ( 0.000000 -0.000002  0.019955)
 22:   1160.54   0.001106    5.59  0.000297  (-0.000000 -0.000003  0.017246)
 23:   1167.35   0.000202    1.02  0.000054  (-0.000000  0.007341  0.000001)
 24:   1291.56   0.001589    8.03  0.000384  (-0.000000  0.000001 -0.019593)
 25:   1336.70   0.001559    7.88  0.000364  ( 0.000000  0.000003 -0.019078)
 26:   1439.52   0.000357    1.80  0.000077  ( 0.000000  0.008798  0.000000)
 27:   1458.23   0.000787    3.98  0.000168  ( 0.000000 -0.000000 -0.012975)
 28:   1506.71   0.002918   14.75  0.000604  (-0.000001 -0.024585  0.000001)
 29:   1576.60   0.000624    3.15  0.000124  ( 0.000000 -0.000004 -0.011114)
 30:   1617.08   0.013123   66.32  0.002533  (-0.000000 -0.050324  0.000000)
 31:   3211.38   0.000005    0.03  0.000001  (-0.000000 -0.000726 -0.000001)
 32:   3218.62   0.000640    3.24  0.000062  (-0.000000 -0.000000  0.007880)
 33:   3228.37   0.000836    4.22  0.000081  (-0.000000  0.008987 -0.000000)
 34:   3236.35   0.000309    1.56  0.000030  (-0.000000  0.000001  0.005459)
 35:   3239.33   0.000209    1.06  0.000020  ( 0.000000  0.004489 -0.000000)

* The epsilon (eps) is given for a Dirac delta lineshape.
** The dipole moment derivative (T) already includes vibrational overlap.

The first frequency considered to be a vibration is 6
The total number of vibrations considered is 30


--------------------------
THERMOCHEMISTRY AT 298.15K
--------------------------

Temperature         ... 298.15 K
Pressure            ... 1.00 atm
Total Mass          ... 93.10 AMU

Throughout the following assumptions are being made:
  (1) The electronic state is orbitally nondegenerate
      but the spin degeneracy is treated
  (2) There are no thermally accessible electronically excited states
  (3) Hindered rotations indicated by low frequency modes are not
      treated as such but are treated as vibrations and this may
      cause some error
  (4) All equations used are the standard statistical mechanics
      equations for an ideal gas
  (5) All vibrations are strictly harmonic

freq.     192.71  E(vib)   ...       0.36 
freq.     383.43  E(vib)   ...       0.20 
freq.     450.68  E(vib)   ...       0.17 
freq.     486.39  E(vib)   ...       0.15 
freq.     531.61  E(vib)   ...       0.13 
freq.     597.94  E(vib)   ...       0.10 
freq.     656.06  E(vib)   ...       0.08 
freq.     813.58  E(vib)   ...       0.05 
freq.     817.23  E(vib)   ...       0.05 
freq.     819.30  E(vib)   ...       0.05 
freq.     949.35  E(vib)   ...       0.03 
freq.     986.95  E(vib)   ...       0.02 
freq.    1006.13  E(vib)   ...       0.02 
freq.    1014.22  E(vib)   ...       0.02 
freq.    1026.16  E(vib)   ...       0.02 
freq.    1102.62  E(vib)   ...       0.02 
freq.    1160.54  E(vib)   ...       0.01 
freq.    1167.35  E(vib)   ...       0.01 
freq.    1291.56  E(vib)   ...       0.01 
freq.    1336.70  E(vib)   ...       0.01 
freq.    1439.52  E(vib)   ...       0.00 
freq.    1458.23  E(vib)   ...       0.00 
freq.    1506.71  E(vib)   ...       0.00 
freq.    1576.60  E(vib)   ...       0.00 
freq.    1617.08  E(vib)   ...       0.00 
freq.    3211.38  E(vib)   ...       0.00 
freq.    3218.62  E(vib)   ...       0.00 
freq.    3228.37  E(vib)   ...       0.00 
freq.    3236.35  E(vib)   ...       0.00 
freq.    3239.33  E(vib)   ...       0.00 

------------
INNER ENERGY
------------

The inner energy is: U= E(el) + E(ZPE) + E(vib) + E(rot) + E(trans)
    E(el)   - is the total energy from the electronic structure calculation
              = E(kin-el) + E(nuc-el) + E(el-el) + E(nuc-nuc)
    E(ZPE)  - the the zero temperature vibrational energy from the frequency calculation
    E(vib)  - the the finite temperature correction to E(ZPE) due to population
              of excited vibrational states
    E(rot)  - is the rotational thermal energy
    E(trans)- is the translational thermal energy

Summary of contributions to the inner energy U:
Electronic energy                ...   -306.80689511 Eh
Zero point energy                ...      0.09231752 Eh      57.93 kcal/mol
Thermal vibrational correction   ...      0.00240727 Eh       1.51 kcal/mol
Thermal rotational correction    ...      0.00141627 Eh       0.89 kcal/mol
Thermal translational correction ...      0.00141627 Eh       0.89 kcal/mol
-----------------------------------------------------------------------
Total thermal energy                   -306.70933777 Eh


Summary of corrections to the electronic energy:
(perhaps to be used in another calculation)
Total thermal correction                  0.00523982 Eh       3.29 kcal/mol
Non-thermal (ZPE) correction              0.09231752 Eh      57.93 kcal/mol
-----------------------------------------------------------------------
Total correction                          0.09755734 Eh      61.22 kcal/mol


--------
ENTHALPY
--------

The enthalpy is H = U + kB*T
                kB is Boltzmann's constant
Total free energy                 ...   -306.70933777 Eh 
Thermal Enthalpy correction       ...      0.00094421 Eh       0.59 kcal/mol
-----------------------------------------------------------------------
Total Enthalpy                    ...   -306.70839356 Eh


Note: Rotational entropy computed according to Herzberg 
Infrared and Raman Spectra, Chapter V,1, Van Nostrand Reinhold, 1945 
Point Group:  C2v, Symmetry Number:   2  
Rotational constants in cm-1:     0.184896     0.094032     0.062332 

Vibrational entropy computed according to the QRRHO of S. Grimme
Chem.Eur.J. 2012 18 9955


-------
ENTROPY
-------

The entropy contributions are T*S = T*(S(el)+S(vib)+S(rot)+S(trans))
     S(el)   - electronic entropy
     S(vib)  - vibrational entropy
     S(rot)  - rotational entropy
     S(trans)- translational entropy
The entropies will be listed as multiplied by the temperature to get
units of energy

Electronic entropy                ...      0.00065446 Eh      0.41 kcal/mol
Vibrational entropy               ...      0.00353787 Eh      2.22 kcal/mol
Rotational entropy                ...      0.01207948 Eh      7.58 kcal/mol
Translational entropy             ...      0.01877006 Eh     11.78 kcal/mol
-----------------------------------------------------------------------
Final entropy term                ...      0.03504187 Eh     21.99 kcal/mol

In case the symmetry of your molecule has not been determined correctly
or in case you have a reason to use a different symmetry number we print 
out the resulting rotational entropy values for sn=1,12 :
 --------------------------------------------------------
|  sn= 1 | S(rot)=       0.01273394 Eh      7.99 kcal/mol|
|  sn= 2 | S(rot)=       0.01207948 Eh      7.58 kcal/mol|
|  sn= 3 | S(rot)=       0.01169665 Eh      7.34 kcal/mol|
|  sn= 4 | S(rot)=       0.01142503 Eh      7.17 kcal/mol|
|  sn= 5 | S(rot)=       0.01121434 Eh      7.04 kcal/mol|
|  sn= 6 | S(rot)=       0.01104220 Eh      6.93 kcal/mol|
|  sn= 7 | S(rot)=       0.01089665 Eh      6.84 kcal/mol|
|  sn= 8 | S(rot)=       0.01077057 Eh      6.76 kcal/mol|
|  sn= 9 | S(rot)=       0.01065936 Eh      6.69 kcal/mol|
|  sn=10 | S(rot)=       0.01055988 Eh      6.63 kcal/mol|
|  sn=11 | S(rot)=       0.01046989 Eh      6.57 kcal/mol|
|  sn=12 | S(rot)=       0.01038774 Eh      6.52 kcal/mol|
 --------------------------------------------------------


-------------------
GIBBS FREE ENERGY
-------------------

The Gibbs free energy is G = H - T*S

Total enthalpy                    ...   -306.70839356 Eh 
Total entropy correction          ...     -0.03504187 Eh    -21.99 kcal/mol
-----------------------------------------------------------------------
Final Gibbs free energy         ...   -306.74343543 Eh

For completeness - the Gibbs free energy minus the electronic energy
G-E(el)                           ...      0.06345968 Eh     39.82 kcal/mol


Timings for individual modules:

Sum of individual times         ...      332.301 sec (=   5.538 min)
GTO integral calculation        ...       10.038 sec (=   0.167 min)   3.0 %
SCF iterations                  ...      121.798 sec (=   2.030 min)  36.7 %
SCF Gradient evaluation         ...       16.961 sec (=   0.283 min)   5.1 %
Geometry relaxation             ...        0.427 sec (=   0.007 min)   0.1 %
Analytical frequency calculation...      183.078 sec (=   3.051 min)  55.1 %
                             ****ORCA TERMINATED NORMALLY****
TOTAL RUN TIME: 0 days 0 hours 5 minutes 48 seconds 60 msec
