
                                 *****************
                                 * O   R   C   A *
                                 *****************

                                            #,                                       
                                            ###                                      
                                            ####                                     
                                            #####                                    
                                            ######                                   
                                           ########,                                 
                                     ,,################,,,,,                         
                               ,,#################################,,                 
                          ,,##########################################,,             
                       ,#########################################, ''#####,          
                    ,#############################################,,   '####,        
                  ,##################################################,,,,####,       
                ,###########''''           ''''###############################       
              ,#####''   ,,,,##########,,,,          '''####'''          '####       
            ,##' ,,,,###########################,,,                        '##       
           ' ,,###''''                  '''############,,,                           
         ,,##''                                '''############,,,,        ,,,,,,###''
      ,#''                                            '''#######################'''  
     '                                                          ''''####''''         
             ,#######,   #######,   ,#######,      ##                                
            ,#'     '#,  ##    ##  ,#'     '#,    #''#        ######   ,####,        
            ##       ##  ##   ,#'  ##            #'  '#       #        #'  '#        
            ##       ##  #######   ##           ,######,      #####,   #    #        
            '#,     ,#'  ##    ##  '#,     ,#' ,#      #,         ##   #,  ,#        
             '#######'   ##     ##  '#######'  #'      '#     #####' # '####'        



                  #######################################################
                  #                        -***-                        #
                  #          Department of theory and spectroscopy      #
                  #    Directorship and core code : Frank Neese         #
                  #        Max Planck Institute fuer Kohlenforschung    #
                  #                Kaiser Wilhelm Platz 1               #
                  #                 D-45470 Muelheim/Ruhr               #
                  #                      Germany                        #
                  #                                                     #
                  #                  All rights reserved                #
                  #                        -***-                        #
                  #######################################################


                         Program Version 5.0.4 -  RELEASE  -


 With contributions from (in alphabetic order):
   Daniel Aravena         : Magnetic Suceptibility
   Michael Atanasov       : Ab Initio Ligand Field Theory (pilot matlab implementation)
   Alexander A. Auer      : GIAO ZORA, VPT2 properties, NMR spectrum
   Ute Becker             : Parallelization
   Giovanni Bistoni       : ED, misc. LED, open-shell LED, HFLD
   Martin Brehm           : Molecular dynamics
   Dmytro Bykov           : SCF Hessian
   Vijay G. Chilkuri      : MRCI spin determinant printing, contributions to CSF-ICE
   Dipayan Datta          : RHF DLPNO-CCSD density
   Achintya Kumar Dutta   : EOM-CC, STEOM-CC
   Dmitry Ganyushin       : Spin-Orbit,Spin-Spin,Magnetic field MRCI
   Miquel Garcia          : C-PCM and meta-GGA Hessian, CC/C-PCM, Gaussian charge scheme
   Yang Guo               : DLPNO-NEVPT2, F12-NEVPT2, CIM, IAO-localization
   Andreas Hansen         : Spin unrestricted coupled pair/coupled cluster methods
   Benjamin Helmich-Paris : MC-RPA, TRAH-SCF, COSX integrals
   Lee Huntington         : MR-EOM, pCC
   Robert Izsak           : Overlap fitted RIJCOSX, COSX-SCS-MP3, EOM
   Marcus Kettner         : VPT2
   Christian Kollmar      : KDIIS, OOCD, Brueckner-CCSD(T), CCSD density, CASPT2, CASPT2-K
   Simone Kossmann        : Meta GGA functionals, TD-DFT gradient, OOMP2, MP2 Hessian
   Martin Krupicka        : Initial AUTO-CI
   Lucas Lang             : DCDCAS
   Marvin Lechner         : AUTO-CI (C++ implementation), FIC-MRCC
   Dagmar Lenk            : GEPOL surface, SMD
   Dimitrios Liakos       : Extrapolation schemes; Compound Job, initial MDCI parallelization
   Dimitrios Manganas     : Further ROCIS development; embedding schemes
   Dimitrios Pantazis     : SARC Basis sets
   Anastasios Papadopoulos: AUTO-CI, single reference methods and gradients
   Taras Petrenko         : DFT Hessian,TD-DFT gradient, ASA, ECA, R-Raman, ABS, FL, XAS/XES, NRVS
   Peter Pinski           : DLPNO-MP2, DLPNO-MP2 Gradient
   Christoph Reimann      : Effective Core Potentials
   Marius Retegan         : Local ZFS, SOC
   Christoph Riplinger    : Optimizer, TS searches, QM/MM, DLPNO-CCSD(T), (RO)-DLPNO pert. Triples
   Tobias Risthaus        : Range-separated hybrids, TD-DFT gradient, RPA, STAB
   Michael Roemelt        : Original ROCIS implementation
   Masaaki Saitow         : Open-shell DLPNO-CCSD energy and density
   Barbara Sandhoefer     : DKH picture change effects
   Avijit Sen             : IP-ROCIS
   Kantharuban Sivalingam : CASSCF convergence, NEVPT2, FIC-MRCI
   Bernardo de Souza      : ESD, SOC TD-DFT
   Georgi Stoychev        : AutoAux, RI-MP2 NMR, DLPNO-MP2 response
   Willem Van den Heuvel  : Paramagnetic NMR
   Boris Wezisla          : Elementary symmetry handling
   Frank Wennmohs         : Technical directorship


 We gratefully acknowledge several colleagues who have allowed us to
 interface, adapt or use parts of their codes:
   Stefan Grimme, W. Hujo, H. Kruse, P. Pracht,  : VdW corrections, initial TS optimization,
                  C. Bannwarth, S. Ehlert          DFT functionals, gCP, sTDA/sTD-DF
   Ed Valeev, F. Pavosevic, A. Kumar             : LibInt (2-el integral package), F12 methods
   Garnet Chan, S. Sharma, J. Yang, R. Olivares  : DMRG
   Ulf Ekstrom                                   : XCFun DFT Library
   Mihaly Kallay                                 : mrcc  (arbitrary order and MRCC methods)
   Jiri Pittner, Ondrej Demel                    : Mk-CCSD
   Frank Weinhold                                : gennbo (NPA and NBO analysis)
   Christopher J. Cramer and Donald G. Truhlar   : smd solvation model
   Lars Goerigk                                  : TD-DFT with DH, B97 family of functionals
   V. Asgeirsson, H. Jonsson                     : NEB implementation
   FAccTs GmbH                                   : IRC, NEB, NEB-TS, DLPNO-Multilevel, CI-OPT
                                                   MM, QMMM, 2- and 3-layer-ONIOM, Crystal-QMMM,
                                                   LR-CPCM, SF, NACMEs, symmetry and pop. for TD-DFT,
                                                   nearIR, NL-DFT gradient (VV10), updates on ESD,
                                                   ML-optimized integration grids
   S Lehtola, MJT Oliveira, MAL Marques          : LibXC Library
   Liviu Ungur et al                             : ANISO software


 Your calculation uses the libint2 library for the computation of 2-el integrals
 For citations please refer to: http://libint.valeyev.net

 Your ORCA version has been built with support for libXC version: 5.1.0
 For citations please refer to: https://tddft.org/programs/libxc/

 This ORCA versions uses:
   CBLAS   interface :  Fast vector & matrix operations
   LAPACKE interface :  Fast linear algebra routines
   SCALAPACK package :  Parallel linear algebra routines
   Shared memory     :  Shared parallel matrices
   BLAS/LAPACK       :  OpenBLAS 0.3.15  USE64BITINT DYNAMIC_ARCH NO_AFFINITY SkylakeX SINGLE_THREADED
        Core in use  :  SkylakeX
   Copyright (c) 2011-2014, The OpenBLAS Project




***************************************
The coordinates will be read from file: opt_EPRII.xyz
***************************************


XCFun DFT library Copyright 2009-2010 Ulf Ekstrom and contributors.
See http://admol.org/xcfun for more information.
This is free software; see the source code for copying conditions.
There is ABSOLUTELY NO WARRANTY; not even for MERCHANTABILITY or FITNESS FOR A PARTICULAR PURPOSE.
For details see the documentation.
Scientific users of this library should cite U. Ekstrom, L. Visscher, R. Bast, A. J. Thorvaldsen and K. Ruud;
J.Chem.Theor.Comp. 2010, DOI: 10.1021/ct100117s
XCFun Version 0.99 

================================================================================

----- Orbital basis set information -----
Your calculation utilizes the basis: def2-TZVP
   F. Weigend and R. Ahlrichs, Phys. Chem. Chem. Phys. 7, 3297 (2005).

----- AuxJ basis set information -----
Your calculation utilizes the auxiliary basis: def2/J
   F. Weigend, Phys. Chem. Chem. Phys. 8, 1057 (2006).

================================================================================
                                        WARNINGS
                       Please study these warnings very carefully!
================================================================================


WARNING: Geometry Optimization
  ===> : Switching off AutoStart
         For restart on a previous wavefunction, please use MOREAD

WARNING: Minnesota functionals are quite sensitive to the integration grid.
         see SE Wheeler, KN Houk, JCTC 2010, 6, 395,
             N Mardirossian, M Head-Gordon, JCTC 2016, 12, 4303.
         DEFGRID3 seems to be a minimum grid for reliable results with these functionals!
  ===> : Please increase the integration grid!


INFO   : the flag for use of the SHARK integral package has been found!

================================================================================
                                       INPUT FILE
================================================================================
NAME = freq.inp
|  1> ! M062X def2-TZVP OPT FREQ
|  2> %pal nprocs 16 end
|  3> *XYZFile 0 1 opt_EPRII.xyz
|  4> 
|  5>                          ****END OF INPUT****
================================================================================

                       *****************************
                       * Geometry Optimization Run *
                       *****************************

Geometry optimization settings:
Update method            Update   .... BFGS
Choice of coordinates    CoordSys .... Z-matrix Internals
Initial Hessian          InHess   .... Almoef's Model

Convergence Tolerances:
Energy Change            TolE     ....  5.0000e-06 Eh
Max. Gradient            TolMAXG  ....  3.0000e-04 Eh/bohr
RMS Gradient             TolRMSG  ....  1.0000e-04 Eh/bohr
Max. Displacement        TolMAXD  ....  4.0000e-03 bohr
RMS Displacement         TolRMSD  ....  2.0000e-03 bohr
Strict Convergence                ....  False
------------------------------------------------------------------------------
                        ORCA OPTIMIZATION COORDINATE SETUP
------------------------------------------------------------------------------

The optimization will be done in new redundant internal coordinates
Making redundant internal coordinates   ...  (new redundants) done
Evaluating the initial hessian          ...  (Almloef) done
Evaluating the coordinates              ...  done
Calculating the B-matrix                .... done
Calculating the G-matrix                .... done
Diagonalizing the G-matrix              .... done
The first mode is                       ....   25
The number of degrees of freedom        ....   33

    -----------------------------------------------------------------
                    Redundant Internal Coordinates


    -----------------------------------------------------------------
         Definition                    Initial Value    Approx d2E/dq
    -----------------------------------------------------------------
      1. B(C   1,H   0)                  1.0871         0.363998   
      2. B(C   2,C   1)                  1.4033         0.594959   
      3. B(H   3,C   2)                  1.0860         0.365446   
      4. B(C   4,C   2)                  1.4063         0.588411   
      5. B(H   5,C   4)                  1.0872         0.363878   
      6. B(C   6,C   4)                  1.4011         0.599919   
      7. B(H   7,C   6)                  1.0859         0.365584   
      8. B(C   8,C   6)                  1.4069         0.587109   
      9. B(C   9,C   8)                  1.4068         0.587480   
     10. B(C   9,C   1)                  1.4043         0.592729   
     11. B(H  10,C   9)                  1.0890         0.361399   
     12. B(O  11,C   8)                  1.3732         0.595244   
     13. B(H  12,O  11)                  0.9646         0.511319   
     14. A(H   0,C   1,C   2)          120.1410         0.351096   
     15. A(H   0,C   1,C   9)          119.2937         0.350873   
     16. A(C   2,C   1,C   9)          120.5653         0.427398   
     17. A(H   3,C   2,C   4)          120.3989         0.350675   
     18. A(C   1,C   2,C   4)          119.2584         0.426839   
     19. A(C   1,C   2,H   3)          120.3427         0.351331   
     20. A(H   5,C   4,C   6)          119.2272         0.351569   
     21. A(C   2,C   4,C   6)          120.8173         0.427474   
     22. A(C   2,C   4,H   5)          119.9556         0.350421   
     23. A(H   7,C   6,C   8)          119.0093         0.350566   
     24. A(C   4,C   6,C   8)          119.4697         0.427304   
     25. A(C   4,C   6,H   7)          121.5211         0.351847   
     26. A(C   6,C   8,C   9)          120.2480         0.425704   
     27. A(C   9,C   8,O  11)          122.3485         0.423975   
     28. A(C   6,C   8,O  11)          117.4035         0.423927   
     29. A(C   1,C   9,H  10)          120.3507         0.350449   
     30. A(C   1,C   9,C   8)          119.6414         0.426431   
     31. A(C   8,C   9,H  10)          120.0080         0.349923   
     32. A(C   8,O  11,H  12)          108.7837         0.366481   
     33. D(C   4,C   2,C   1,H   0)   -179.9947         0.024381   
     34. D(C   4,C   2,C   1,C   9)      0.0091         0.024381   
     35. D(H   3,C   2,C   1,C   9)   -179.9939         0.024381   
     36. D(H   3,C   2,C   1,H   0)      0.0022         0.024381   
     37. D(C   6,C   4,C   2,C   1)     -0.0085         0.023820   
     38. D(H   5,C   4,C   2,C   1)    179.9921         0.023820   
     39. D(H   5,C   4,C   2,H   3)     -0.0048         0.023820   
     40. D(C   6,C   4,C   2,H   3)    179.9945         0.023820   
     41. D(C   8,C   6,C   4,H   5)    179.9953         0.024811   
     42. D(C   8,C   6,C   4,C   2)     -0.0040         0.024811   
     43. D(H   7,C   6,C   4,H   5)     -0.0049         0.024811   
     44. D(H   7,C   6,C   4,C   2)    179.9957         0.024811   
     45. D(O  11,C   8,C   6,C   4)   -179.9803         0.023709   
     46. D(C   9,C   8,C   6,H   7)   -179.9836         0.023709   
     47. D(C   9,C   8,C   6,C   4)      0.0162         0.023709   
     48. D(O  11,C   8,C   6,H   7)      0.0200         0.023709   
     49. D(H  10,C   9,C   8,O  11)     -0.0136         0.023741   
     50. D(C   1,C   9,C   8,O  11)    179.9807         0.023741   
     51. D(C   1,C   9,C   8,C   6)     -0.0156         0.023741   
     52. D(H  10,C   9,C   1,C   2)    179.9971         0.024189   
     53. D(H  10,C   9,C   1,H   0)      0.0009         0.024189   
     54. D(H  10,C   9,C   8,C   6)    179.9901         0.023741   
     55. D(C   8,C   9,C   1,C   2)      0.0028         0.024189   
     56. D(C   8,C   9,C   1,H   0)   -179.9934         0.024189   
     57. D(H  12,O  11,C   8,C   9)      0.0330         0.025851   
     58. D(H  12,O  11,C   8,C   6)   -179.9707         0.025851   
    -----------------------------------------------------------------

Number of atoms                         .... 13
Number of degrees of freedom            .... 58

         *************************************************************
         *                GEOMETRY OPTIMIZATION CYCLE   1            *
         *************************************************************
---------------------------------
CARTESIAN COORDINATES (ANGSTROEM)
---------------------------------
  H      1.512302    0.166974    2.083943
  C      0.971995    0.092889    1.143571
  C      1.674771    0.009864   -0.068254
  H      2.760704    0.019033   -0.074417
  C      0.957067   -0.085230   -1.273919
  H      1.490020   -0.150002   -2.219265
  C     -0.443934   -0.097924   -1.276161
  H     -1.009532   -0.170877   -2.200242
  C     -1.138833   -0.014460   -0.055663
  C     -0.432235    0.081305    1.156992
  H     -0.974076    0.145869    2.099439
  O     -2.510957   -0.030940   -0.107204
  H     -2.856291    0.032501    0.791181

----------------------------
CARTESIAN COORDINATES (A.U.)
----------------------------
  NO LB      ZA    FRAG     MASS         X           Y           Z
   0 H     1.0000    0     1.008    2.857836    0.315534    3.938081
   1 C     6.0000    0    12.011    1.836804    0.175535    2.161036
   2 C     6.0000    0    12.011    3.164859    0.018640   -0.128981
   3 H     1.0000    0     1.008    5.216974    0.035966   -0.140628
   4 C     6.0000    0    12.011    1.808594   -0.161061   -2.407357
   5 H     1.0000    0     1.008    2.815730   -0.283463   -4.193803
   6 C     6.0000    0    12.011   -0.838914   -0.185050   -2.411596
   7 H     1.0000    0     1.008   -1.907739   -0.322912   -4.157855
   8 C     6.0000    0    12.011   -2.152083   -0.027326   -0.105187
   9 C     6.0000    0    12.011   -0.816806    0.153645    2.186399
  10 H     1.0000    0     1.008   -1.840737    0.275653    3.967364
  11 O     8.0000    0    15.999   -4.745021   -0.058468   -0.202587
  12 H     1.0000    0     1.008   -5.397607    0.061419    1.495115

--------------------------------
INTERNAL COORDINATES (ANGSTROEM)
--------------------------------
 H      0   0   0     0.000000000000     0.00000000     0.00000000
 C      1   0   0     1.087068896875     0.00000000     0.00000000
 C      2   1   0     1.403320117268   120.14099719     0.00000000
 H      3   2   1     1.085988573774   120.34271937     0.00000000
 C      3   2   1     1.406332561556   119.25841510   180.00529451
 H      5   3   2     1.087159012951   119.95557743   179.99208254
 C      5   3   2     1.401060057413   120.81725002     0.00000000
 H      7   5   3     1.085885676081   121.52105862   179.99568368
 C      7   5   3     1.406935888716   119.46965069     0.00000000
 C      2   1   3     1.404342251333   119.29367933   179.99619673
 H     10   2   1     1.089020185617   120.35066341     0.00000000
 O      9   7   5     1.373190039899   117.40347048   180.01970881
 H     12   9   7     0.964560014383   108.78366925   180.02934129

---------------------------
INTERNAL COORDINATES (A.U.)
---------------------------
 H      0   0   0     0.000000000000     0.00000000     0.00000000
 C      1   0   0     2.054262503797     0.00000000     0.00000000
 C      2   1   0     2.651890699860   120.14099719     0.00000000
 H      3   2   1     2.052220989001   120.34271937     0.00000000
 C      3   2   1     2.657583394558   119.25841510   180.00529451
 H      5   3   2     2.054432798501   119.95557743   179.99208254
 C      5   3   2     2.647619805687   120.81725002     0.00000000
 H      7   5   3     2.052026540540   121.52105862   179.99568368
 C      7   5   3     2.658723517659   119.46965069     0.00000000
 C      2   1   3     2.653822253313   119.29367933   179.99619673
 H     10   2   1     2.057949905129   120.35066341     0.00000000
 O      9   7   5     2.594953105237   117.40347048   180.01970881
 H     12   9   7     1.822754266915   108.78366925   180.02934129

---------------------
BASIS SET INFORMATION
---------------------
There are 3 groups of distinct atoms

 Group   1 Type H   : 5s1p contracted to 3s1p pattern {311/1}
 Group   2 Type C   : 11s6p2d1f contracted to 5s3p2d1f pattern {62111/411/11/1}
 Group   3 Type O   : 11s6p2d1f contracted to 5s3p2d1f pattern {62111/411/11/1}

Atom   0H    basis set group =>   1
Atom   1C    basis set group =>   2
Atom   2C    basis set group =>   2
Atom   3H    basis set group =>   1
Atom   4C    basis set group =>   2
Atom   5H    basis set group =>   1
Atom   6C    basis set group =>   2
Atom   7H    basis set group =>   1
Atom   8C    basis set group =>   2
Atom   9C    basis set group =>   2
Atom  10H    basis set group =>   1
Atom  11O    basis set group =>   3
Atom  12H    basis set group =>   1
---------------------------------
AUXILIARY/J BASIS SET INFORMATION
---------------------------------
There are 3 groups of distinct atoms

 Group   1 Type H   : 5s2p1d contracted to 3s1p1d pattern {311/2/1}
 Group   2 Type C   : 12s5p4d2f1g contracted to 6s4p3d1f1g pattern {711111/2111/211/2/1}
 Group   3 Type O   : 12s5p4d2f1g contracted to 6s4p3d1f1g pattern {711111/2111/211/2/1}

Atom   0H    basis set group =>   1
Atom   1C    basis set group =>   2
Atom   2C    basis set group =>   2
Atom   3H    basis set group =>   1
Atom   4C    basis set group =>   2
Atom   5H    basis set group =>   1
Atom   6C    basis set group =>   2
Atom   7H    basis set group =>   1
Atom   8C    basis set group =>   2
Atom   9C    basis set group =>   2
Atom  10H    basis set group =>   1
Atom  11O    basis set group =>   3
Atom  12H    basis set group =>   1


           ************************************************************
           *        Program running with 16 parallel MPI-processes    *
           *              working on a common directory               *
           ************************************************************
------------------------------------------------------------------------------
                           ORCA GTO INTEGRAL CALCULATION
                           -- RI-GTO INTEGRALS CHOSEN --
------------------------------------------------------------------------------
------------------------------------------------------------------------------
                   ___                                                        
                  /   \      - P O W E R E D   B Y -                         
                 /     \                                                     
                 |  |  |   _    _      __       _____    __    __             
                 |  |  |  | |  | |    /  \     |  _  \  |  |  /  |          
                  \  \/   | |  | |   /    \    | | | |  |  | /  /          
                 / \  \   | |__| |  /  /\  \   | |_| |  |  |/  /          
                |  |  |   |  __  | /  /__\  \  |    /   |      \           
                |  |  |   | |  | | |   __   |  |    \   |  |\   \          
                \     /   | |  | | |  |  |  |  | |\  \  |  | \   \       
                 \___/    |_|  |_| |__|  |__|  |_| \__\ |__|  \__/        
                                                                              
                      - O R C A' S   B I G   F R I E N D -                    
                                      &                                       
                       - I N T E G R A L  F E E D E R -                       
                                                                              
 v1 FN, 2020, v2 2021                                                         
------------------------------------------------------------------------------


Reading SHARK input file freq.SHARKINP.tmp ... ok
----------------------
SHARK INTEGRAL PACKAGE
----------------------

Number of atoms                             ...     13
Number of basis functions                   ...    253
Number of shells                            ...    101
Maximum angular momentum                    ...      3
Integral batch strategy                     ... SHARK/LIBINT Hybrid
RI-J (if used) integral strategy            ... SPLIT-RIJ (Revised 2003 algorithm where possible)
Printlevel                                  ...      1
Contraction scheme used                     ... SEGMENTED contraction
Coulomb Range Separation                    ... NOT USED
Exchange Range Separation                   ... NOT USED
Finite Nucleus Model                        ... NOT USED
Auxiliary Coulomb fitting basis             ... AVAILABLE
   # of basis functions in Aux-J            ...    409
   # of shells in Aux-J                     ...    135
   Maximum angular momentum in Aux-J        ...      4
Auxiliary J/K fitting basis                 ... NOT available
Auxiliary Correlation fitting basis         ... NOT available
Auxiliary 'external' fitting basis          ... NOT available
Integral threshold                          ...     2.500000e-11
Primitive cut-off                           ...     2.500000e-12
Primitive pair pre-selection threshold      ...     2.500000e-12

Calculating pre-screening integrals         ... done (  0.1 sec) Dimension = 101
Organizing shell pair data                  ... done (  0.1 sec)
Shell pair information
Total number of shell pairs                 ...      5151
Shell pairs after pre-screening             ...      4863
Total number of primitive shell pairs       ...     15748
Primitive shell pairs kept                  ...     11480
          la=0 lb=0:   1293 shell pairs
          la=1 lb=0:   1355 shell pairs
          la=1 lb=1:    368 shell pairs
          la=2 lb=0:    709 shell pairs
          la=2 lb=1:    371 shell pairs
          la=2 lb=2:    102 shell pairs
          la=3 lb=0:    355 shell pairs
          la=3 lb=1:    186 shell pairs
          la=3 lb=2:     96 shell pairs
          la=3 lb=3:     28 shell pairs

Calculating one electron integrals          ... done (  0.0 sec)
Calculating RI/J V-Matrix + Cholesky decomp.... done (  0.1 sec)
Calculating Nuclear repulsion               ... done (  0.0 sec) ENN=    269.514002501180 Eh

SHARK setup successfully completed in   0.5 seconds

Maximum memory used throughout the entire GTOINT-calculation: 18.4 MB


           ************************************************************
           *        Program running with 16 parallel MPI-processes    *
           *              working on a common directory               *
           ************************************************************
-------------------------------------------------------------------------------
                                 ORCA SCF
-------------------------------------------------------------------------------

------------
SCF SETTINGS
------------
Hamiltonian:
 Density Functional     Method          .... DFT(GTOs)
 Exchange Functional    Exchange        .... M062X
 Correlation Functional Correlation     .... M062X
 Gradients option       PostSCFGGA      .... off
 Hybrid DFT is turned on
   Fraction HF Exchange ScalHFX         ....  0.540000
   Scaling of DF-GGA-X  ScalDFX         ....  0.460000
   Scaling of DF-GGA-C  ScalDFC         ....  1.000000
   Scaling of DF-LDA-C  ScalLDAC        ....  1.000000
   Perturbative correction              ....  0.000000
   Density functional embedding theory  .... OFF
 RI-approximation to the Coulomb term is turned on
   Number of AuxJ basis functions       .... 409
   RIJ-COSX (HFX calculated with COS-X)).... on


General Settings:
 Integral files         IntName         .... freq
 Hartree-Fock type      HFTyp           .... RHF
 Total Charge           Charge          ....    0
 Multiplicity           Mult            ....    1
 Number of Electrons    NEL             ....   50
 Basis Dimension        Dim             ....  253
 Nuclear Repulsion      ENuc            ....    269.5140025012 Eh

Convergence Acceleration:
 DIIS                   CNVDIIS         .... on
   Start iteration      DIISMaxIt       ....    12
   Startup error        DIISStart       ....  0.200000
   # of expansion vecs  DIISMaxEq       ....     5
   Bias factor          DIISBfac        ....   1.050
   Max. coefficient     DIISMaxC        ....  10.000
 Trust-Rad. Augm. Hess. CNVTRAH         .... auto
   Auto Start mean grad. ratio tolernc. ....  1.125000
   Auto Start start iteration           ....    20
   Auto Start num. interpolation iter.  ....    10
   Max. Number of Micro iterations      ....    16
   Max. Number of Macro iterations      .... Maxiter - #DIIS iter
   Number of Davidson start vectors     ....     2
   Converg. threshold I  (grad. norm)   ....   1.000e-05
   Converg. threshold II (energy diff.) ....   1.000e-08
   Grad. Scal. Fac. for Micro threshold ....   0.100
   Minimum threshold for Micro iter.    ....   0.010
   NR start threshold (gradient norm)   ....   0.001
   Initial trust radius                 ....   0.400
   Minimum AH scaling param. (alpha)    ....   1.000
   Maximum AH scaling param. (alpha)    .... 1000.000
   Orbital update algorithm             .... Taylor
   White noise on init. David. guess    .... on
   Maximum white noise                  ....   0.010
   Quad. conv. algorithm                .... NR
 SOSCF                  CNVSOSCF        .... on
   Start iteration      SOSCFMaxIt      ....   150
   Startup grad/error   SOSCFStart      ....  0.003300
 Level Shifting         CNVShift        .... on
   Level shift para.    LevelShift      ....    0.2500
   Turn off err/grad.   ShiftErr        ....    0.0010
 Zerner damping         CNVZerner       .... off
 Static damping         CNVDamp         .... on
   Fraction old density DampFac         ....    0.7000
   Max. Damping (<1)    DampMax         ....    0.9800
   Min. Damping (>=0)   DampMin         ....    0.0000
   Turn off err/grad.   DampErr         ....    0.1000
 Fernandez-Rico         CNVRico         .... off

SCF Procedure:
 Maximum # iterations   MaxIter         ....   125
 SCF integral mode      SCFMode         .... Direct
   Integral package                     .... SHARK and LIBINT hybrid scheme
 Reset frequency        DirectResetFreq ....    20
 Integral Threshold     Thresh          ....  2.500e-11 Eh
 Primitive CutOff       TCut            ....  2.500e-12 Eh

Convergence Tolerance:
 Convergence Check Mode ConvCheckMode   .... Total+1el-Energy
 Convergence forced     ConvForced      .... 0
 Energy Change          TolE            ....  1.000e-08 Eh
 1-El. energy change                    ....  1.000e-05 Eh
 Orbital Gradient       TolG            ....  1.000e-05
 Orbital Rotation angle TolX            ....  1.000e-05
 DIIS Error             TolErr          ....  5.000e-07


Diagonalization of the overlap matrix:
Smallest eigenvalue                        ... 1.157e-05
Time for diagonalization                   ...    0.016 sec
Threshold for overlap eigenvalues          ... 1.000e-08
Number of eigenvalues below threshold      ... 0
Time for construction of square roots      ...    0.025 sec
Total time needed                          ...    0.041 sec

Time for model grid setup =    0.102 sec

------------------------------
INITIAL GUESS: MODEL POTENTIAL
------------------------------
Loading Hartree-Fock densities                     ... done
Calculating cut-offs                               ... done
Initializing the effective Hamiltonian             ... done
Setting up the integral package (SHARK)            ... done
Starting the Coulomb interaction                   ... done (   0.1 sec)
Reading the grid                                   ... done
Mapping shells                                     ... done
Starting the XC term evaluation                    ... done (   0.0 sec)
  promolecular density results
     # of electrons  =     49.997639366
     EX              =    -40.580602784
     EC              =     -1.649194698
     EX+EC           =    -42.229797481
Transforming the Hamiltonian                       ... done (   0.0 sec)
Diagonalizing the Hamiltonian                      ... done (   0.0 sec)
Back transforming the eigenvectors                 ... done (   0.0 sec)
Now organizing SCF variables                       ... done
                      ------------------
                      INITIAL GUESS DONE (   0.4 sec)
                      ------------------
-------------------
DFT GRID GENERATION
-------------------

General Integration Accuracy     IntAcc      ... 4.388
Radial Grid Type                 RadialGrid  ... OptM3 with GC (2021)
Angular Grid (max. ang.)         AngularGrid ... 4 (Lebedev-302)
Angular grid pruning method      GridPruning ... 4 (adaptive)
Weight generation scheme         WeightScheme... Becke
Basis function cutoff            BFCut       ... 1.0000e-11
Integration weight cutoff        WCut        ... 1.0000e-14
Angular grids for H and He will be reduced by one unit
Partially contracted basis set               ... off
Rotationally invariant grid construction     ... off

Total number of grid points                  ...    61565
Total number of batches                      ...      968
Average number of points per batch           ...       63
Average number of grid points per atom       ...     4736
Time for grid setup =    0.319 sec

--------------------
COSX GRID GENERATION
--------------------

GRIDX 1
-------
General Integration Accuracy     IntAcc      ... 3.816
Radial Grid Type                 RadialGrid  ... OptM3 with GC (2021)
Angular Grid (max. ang.)         AngularGrid ... 1 (Lebedev-50)
Angular grid pruning method      GridPruning ... 4 (adaptive)
Weight generation scheme         WeightScheme... Becke
Basis function cutoff            BFCut       ... 1.0000e-11
Integration weight cutoff        WCut        ... 1.0000e-14
Angular grids for H and He will be reduced by one unit
Partially contracted basis set               ... on
Rotationally invariant grid construction     ... off

Total number of grid points                  ...     7891
Total number of batches                      ...      127
Average number of points per batch           ...       62
Average number of grid points per atom       ...      607
UseSFitting                                  ... on

GRIDX 2
-------
General Integration Accuracy     IntAcc      ... 4.020
Radial Grid Type                 RadialGrid  ... OptM3 with GC (2021)
Angular Grid (max. ang.)         AngularGrid ... 2 (Lebedev-110)
Angular grid pruning method      GridPruning ... 4 (adaptive)
Weight generation scheme         WeightScheme... Becke
Basis function cutoff            BFCut       ... 1.0000e-11
Integration weight cutoff        WCut        ... 1.0000e-14
Angular grids for H and He will be reduced by one unit
Partially contracted basis set               ... on
Rotationally invariant grid construction     ... off

Total number of grid points                  ...    17270
Total number of batches                      ...      276
Average number of points per batch           ...       62
Average number of grid points per atom       ...     1328
UseSFitting                                  ... on

GRIDX 3
-------
General Integration Accuracy     IntAcc      ... 4.338
Radial Grid Type                 RadialGrid  ... OptM3 with GC (2021)
Angular Grid (max. ang.)         AngularGrid ... 3 (Lebedev-194)
Angular grid pruning method      GridPruning ... 4 (adaptive)
Weight generation scheme         WeightScheme... Becke
Basis function cutoff            BFCut       ... 1.0000e-11
Integration weight cutoff        WCut        ... 1.0000e-14
Angular grids for H and He will be reduced by one unit
Partially contracted basis set               ... on
Rotationally invariant grid construction     ... off

Total number of grid points                  ...    38029
Total number of batches                      ...      602
Average number of points per batch           ...       63
Average number of grid points per atom       ...     2925
UseSFitting                                  ... on

Time for X-Grid setup             =    0.761 sec

--------------
SCF ITERATIONS
--------------
ITER       Energy         Delta-E        Max-DP      RMS-DP      [F,P]     Damp
               ***  Starting incremental Fock matrix formation  ***
  0   -307.2646784424   0.000000000000 0.03263679  0.00124062  0.2236077 0.7000
  1   -307.3452878983  -0.080609455941 0.03272955  0.00100783  0.1169454 0.7000
                               ***Turning on DIIS***
  2   -307.3844686972  -0.039180798911 0.05906424  0.00215826  0.0507856 0.0000
  3   -307.4444732942  -0.060004596971 0.03880406  0.00058151  0.0499770 0.0000
  4   -307.4559046732  -0.011431379043 0.00854732  0.00017979  0.0064457 0.0000
  5   -307.4561682396  -0.000263566385 0.00440993  0.00007362  0.0038507 0.0000
                      *** Initiating the SOSCF procedure ***
                           *** Shutting down DIIS ***
                      *** Re-Reading the Fockian *** 
                      *** Removing any level shift *** 
ITER      Energy       Delta-E        Grad      Rot      Max-DP    RMS-DP
  6   -307.45619326  -0.0000250162  0.000205  0.000205  0.000899  0.000026
               *** Restarting incremental Fock matrix formation ***
  7   -307.45613807   0.0000551841  0.000160  0.000509  0.000638  0.000025
  8   -307.45613856  -0.0000004868  0.000105  0.000255  0.000329  0.000012
  9   -307.45613870  -0.0000001369  0.000045  0.000080  0.000236  0.000009
 10   -307.45613874  -0.0000000456  0.000006  0.000017  0.000026  0.000001
 11   -307.45613874  -0.0000000004  0.000005  0.000007  0.000011  0.000000
                  ***Gradient check signals convergence***
              ***Rediagonalizing the Fockian in SOSCF/NRSCF***

               *****************************************************
               *                     SUCCESS                       *
               *           SCF CONVERGED AFTER  12 CYCLES          *
               *****************************************************

Old exchange energy                            =    -22.372366230 Eh
New exchange energy                            =    -22.372361898 Eh
Exchange energy change after final integration =      0.000004332 Eh
Total energy after final integration           =   -307.456134409 Eh
Final COS-X integration done in                =     1.415 sec

----------------
TOTAL SCF ENERGY
----------------

Total Energy       :         -307.45613441 Eh           -8366.30675 eV

Components:
Nuclear Repulsion  :          269.51400250 Eh            7333.84885 eV
Electronic Energy  :         -576.97013691 Eh          -15700.15561 eV
One Electron Energy:         -949.25739073 Eh          -25830.60680 eV
Two Electron Energy:          372.28725381 Eh           10130.45120 eV
Max COSX asymmetry :            0.00000229 Eh               0.00006 eV

Virial components:
Potential Energy   :         -613.15580176 Eh          -16684.81761 eV
Kinetic Energy     :          305.69966735 Eh            8318.51085 eV
Virial Ratio       :            2.00574573


DFT components:
N(Alpha)           :       25.000008836567 electrons
N(Beta)            :       25.000008836567 electrons
N(Total)           :       50.000017673134 electrons
E(XC)              :      -20.869533264578 Eh       
DFET-embed. en.    :        0.000000000000 Eh       

---------------
SCF CONVERGENCE
---------------

  Last Energy change         ...    3.9842e-10  Tolerance :   1.0000e-08
  Last MAX-Density change    ...    1.7764e-15  Tolerance :   1.0000e-07
  Last RMS-Density change    ...    2.4896e-17  Tolerance :   5.0000e-09
  Last Orbital Gradient      ...    1.1344e-06  Tolerance :   1.0000e-05
  Last Orbital Rotation      ...    4.6789e-06  Tolerance :   1.0000e-05

             **** THE GBW FILE WAS UPDATED (freq.gbw) ****
             **** DENSITY freq.scfp WAS UPDATED ****
             **** ENERGY FILE WAS UPDATED (freq.en.tmp) ****
             **** THE GBW FILE WAS UPDATED (freq.gbw) ****
             **** DENSITY freq.scfp WAS UPDATED ****
----------------
ORBITAL ENERGIES
----------------

  NO   OCC          E(Eh)            E(eV) 
   0   2.0000     -19.658246      -534.9281 
   1   2.0000     -10.610464      -288.7254 
   2   2.0000     -10.551107      -287.1102 
   3   2.0000     -10.549120      -287.0562 
   4   2.0000     -10.548355      -287.0353 
   5   2.0000     -10.542505      -286.8761 
   6   2.0000     -10.540618      -286.8248 
   7   2.0000      -1.185303       -32.2537 
   8   2.0000      -0.951711       -25.8974 
   9   2.0000      -0.845109       -22.9966 
  10   2.0000      -0.833222       -22.6731 
  11   2.0000      -0.709125       -19.2963 
  12   2.0000      -0.686406       -18.6780 
  13   2.0000      -0.621012       -16.8986 
  14   2.0000      -0.574790       -15.6408 
  15   2.0000      -0.542099       -14.7513 
  16   2.0000      -0.507150       -13.8002 
  17   2.0000      -0.493307       -13.4236 
  18   2.0000      -0.491329       -13.3698 
  19   2.0000      -0.466282       -12.6882 
  20   2.0000      -0.424109       -11.5406 
  21   2.0000      -0.411430       -11.1956 
  22   2.0000      -0.402674       -10.9573 
  23   2.0000      -0.310931        -8.4609 
  24   2.0000      -0.281858        -7.6698 
  25   0.0000       0.015759         0.4288 
  26   0.0000       0.032757         0.8914 
  27   0.0000       0.060045         1.6339 
  28   0.0000       0.085264         2.3201 
  29   0.0000       0.110654         3.0111 
  30   0.0000       0.122849         3.3429 
  31   0.0000       0.140883         3.8336 
  32   0.0000       0.150395         4.0924 
  33   0.0000       0.168291         4.5794 
  34   0.0000       0.188032         5.1166 
  35   0.0000       0.220629         6.0036 
  36   0.0000       0.226539         6.1644 
  37   0.0000       0.243201         6.6178 
  38   0.0000       0.247050         6.7226 
  39   0.0000       0.260712         7.0943 
  40   0.0000       0.268882         7.3167 
  41   0.0000       0.281739         7.6665 
  42   0.0000       0.283629         7.7179 
  43   0.0000       0.293279         7.9805 
  44   0.0000       0.309534         8.4228 
  45   0.0000       0.353798         9.6273 
  46   0.0000       0.361082         9.8255 
  47   0.0000       0.365770         9.9531 
  48   0.0000       0.367097         9.9892 
  49   0.0000       0.384321        10.4579 
  50   0.0000       0.389115        10.5883 
  51   0.0000       0.405078        11.0227 
  52   0.0000       0.424772        11.5586 
  53   0.0000       0.437374        11.9016 
  54   0.0000       0.443165        12.0591 
  55   0.0000       0.454531        12.3684 
  56   0.0000       0.461707        12.5637 
  57   0.0000       0.480648        13.0791 
  58   0.0000       0.495977        13.4962 
  59   0.0000       0.499805        13.6004 
  60   0.0000       0.515460        14.0264 
  61   0.0000       0.520173        14.1546 
  62   0.0000       0.528484        14.3808 
  63   0.0000       0.536307        14.5937 
  64   0.0000       0.544207        14.8086 
  65   0.0000       0.600528        16.3412 
  66   0.0000       0.607285        16.5251 
  67   0.0000       0.662912        18.0388 
  68   0.0000       0.677494        18.4356 
  69   0.0000       0.678706        18.4685 
  70   0.0000       0.707448        19.2506 
  71   0.0000       0.723793        19.6954 
  72   0.0000       0.744498        20.2588 
  73   0.0000       0.761521        20.7220 
  74   0.0000       0.781108        21.2550 
  75   0.0000       0.785237        21.3674 
  76   0.0000       0.805629        21.9223 
  77   0.0000       0.851251        23.1637 
  78   0.0000       0.864168        23.5152 
  79   0.0000       0.878373        23.9018 
  80   0.0000       0.907450        24.6930 
  81   0.0000       0.907522        24.6949 
  82   0.0000       0.912545        24.8316 
  83   0.0000       0.931974        25.3603 
  84   0.0000       1.037268        28.2255 
  85   0.0000       1.044900        28.4332 
  86   0.0000       1.061551        28.8863 
  87   0.0000       1.075792        29.2738 
  88   0.0000       1.105432        30.0803 
  89   0.0000       1.108504        30.1639 
  90   0.0000       1.177021        32.0284 
  91   0.0000       1.189775        32.3754 
  92   0.0000       1.208651        32.8891 
  93   0.0000       1.223064        33.2813 
  94   0.0000       1.232410        33.5356 
  95   0.0000       1.252680        34.0872 
  96   0.0000       1.255852        34.1735 
  97   0.0000       1.291791        35.1514 
  98   0.0000       1.319963        35.9180 
  99   0.0000       1.359610        36.9969 
 100   0.0000       1.371881        37.3308 
 101   0.0000       1.408462        38.3262 
 102   0.0000       1.432648        38.9843 
 103   0.0000       1.447460        39.3874 
 104   0.0000       1.485549        40.4238 
 105   0.0000       1.493807        40.6486 
 106   0.0000       1.540392        41.9162 
 107   0.0000       1.540960        41.9317 
 108   0.0000       1.542867        41.9835 
 109   0.0000       1.591037        43.2943 
 110   0.0000       1.622481        44.1500 
 111   0.0000       1.640308        44.6350 
 112   0.0000       1.649722        44.8912 
 113   0.0000       1.706915        46.4475 
 114   0.0000       1.715682        46.6861 
 115   0.0000       1.722709        46.8773 
 116   0.0000       1.737570        47.2817 
 117   0.0000       1.738389        47.3040 
 118   0.0000       1.762351        47.9560 
 119   0.0000       1.780221        48.4423 
 120   0.0000       1.800018        48.9810 
 121   0.0000       1.879553        51.1452 
 122   0.0000       1.883916        51.2640 
 123   0.0000       1.919481        52.2317 
 124   0.0000       1.933021        52.6002 
 125   0.0000       1.958958        53.3060 
 126   0.0000       2.034865        55.3715 
 127   0.0000       2.051169        55.8152 
 128   0.0000       2.058167        56.0056 
 129   0.0000       2.088215        56.8232 
 130   0.0000       2.110053        57.4175 
 131   0.0000       2.151582        58.5475 
 132   0.0000       2.158031        58.7230 
 133   0.0000       2.174435        59.1694 
 134   0.0000       2.209514        60.1239 
 135   0.0000       2.236302        60.8529 
 136   0.0000       2.260654        61.5155 
 137   0.0000       2.281850        62.0923 
 138   0.0000       2.334107        63.5143 
 139   0.0000       2.375336        64.6362 
 140   0.0000       2.408508        65.5388 
 141   0.0000       2.465805        67.0980 
 142   0.0000       2.498022        67.9746 
 143   0.0000       2.525860        68.7322 
 144   0.0000       2.542719        69.1909 
 145   0.0000       2.578847        70.1740 
 146   0.0000       2.591346        70.5141 
 147   0.0000       2.592636        70.5492 
 148   0.0000       2.617913        71.2370 
 149   0.0000       2.658045        72.3291 
 150   0.0000       2.658724        72.3475 
 151   0.0000       2.672182        72.7138 
 152   0.0000       2.676218        72.8236 
 153   0.0000       2.689610        73.1880 
 154   0.0000       2.716348        73.9156 
 155   0.0000       2.736043        74.4515 
 156   0.0000       2.754760        74.9608 
 157   0.0000       2.764614        75.2290 
 158   0.0000       2.768691        75.3399 
 159   0.0000       2.793126        76.0048 
 160   0.0000       2.816177        76.6321 
 161   0.0000       2.830610        77.0248 
 162   0.0000       2.836475        77.1844 
 163   0.0000       2.875812        78.2548 
 164   0.0000       2.876441        78.2719 
 165   0.0000       2.914560        79.3092 
 166   0.0000       2.923137        79.5426 
 167   0.0000       2.958952        80.5172 
 168   0.0000       3.010606        81.9227 
 169   0.0000       3.035729        82.6064 
 170   0.0000       3.043902        82.8288 
 171   0.0000       3.097454        84.2860 
 172   0.0000       3.102201        84.4152 
 173   0.0000       3.109402        84.6111 
 174   0.0000       3.133055        85.2548 
 175   0.0000       3.136897        85.3593 
 176   0.0000       3.145360        85.5896 
 177   0.0000       3.191208        86.8372 
 178   0.0000       3.210597        87.3648 
 179   0.0000       3.212909        87.4277 
 180   0.0000       3.216703        87.5309 
 181   0.0000       3.232440        87.9592 
 182   0.0000       3.233985        88.0012 
 183   0.0000       3.291009        89.5529 
 184   0.0000       3.312182        90.1291 
 185   0.0000       3.345435        91.0339 
 186   0.0000       3.364111        91.5421 
 187   0.0000       3.386477        92.1507 
 188   0.0000       3.404723        92.6472 
 189   0.0000       3.432556        93.4046 
 190   0.0000       3.434806        93.4658 
 191   0.0000       3.451253        93.9134 
 192   0.0000       3.464550        94.2752 
 193   0.0000       3.485836        94.8544 
 194   0.0000       3.486363        94.8688 
 195   0.0000       3.500817        95.2621 
 196   0.0000       3.581518        97.4581 
 197   0.0000       3.620438        98.5171 
 198   0.0000       3.665459        99.7422 
 199   0.0000       3.706895       100.8698 
 200   0.0000       3.724022       101.3358 
 201   0.0000       3.732826       101.5753 
 202   0.0000       3.810880       103.6993 
 203   0.0000       3.906715       106.3071 
 204   0.0000       3.937651       107.1489 
 205   0.0000       3.979718       108.2936 
 206   0.0000       4.006404       109.0198 
 207   0.0000       4.009190       109.0956 
 208   0.0000       4.044986       110.0697 
 209   0.0000       4.052719       110.2801 
 210   0.0000       4.107042       111.7583 
 211   0.0000       4.123134       112.1962 
 212   0.0000       4.139508       112.6417 
 213   0.0000       4.148202       112.8783 
 214   0.0000       4.159011       113.1725 
 215   0.0000       4.201701       114.3341 
 216   0.0000       4.227017       115.0230 
 217   0.0000       4.237529       115.3090 
 218   0.0000       4.306403       117.1832 
 219   0.0000       4.464215       121.4775 
 220   0.0000       4.502675       122.5240 
 221   0.0000       4.557066       124.0041 
 222   0.0000       4.601612       125.2162 
 223   0.0000       4.625580       125.8684 
 224   0.0000       4.732836       128.7870 
 225   0.0000       4.779684       130.0618 
 226   0.0000       4.797159       130.5373 
 227   0.0000       4.807073       130.8071 
 228   0.0000       5.031524       136.9147 
 229   0.0000       5.068202       137.9128 
 230   0.0000       5.161441       140.4500 
 231   0.0000       5.186353       141.1278 
 232   0.0000       5.271383       143.4416 
 233   0.0000       5.284883       143.8090 
 234   0.0000       5.449970       148.3012 
 235   0.0000       5.473191       148.9331 
 236   0.0000       5.554432       151.1438 
 237   0.0000       5.754606       156.5908 
 238   0.0000       5.943408       161.7284 
 239   0.0000       6.225747       169.4112 
 240   0.0000       6.341030       172.5482 
 241   0.0000       6.413608       174.5232 
 242   0.0000       6.695186       182.1853 
 243   0.0000       6.769615       184.2106 
 244   0.0000       6.955172       189.2599 
 245   0.0000       7.223893       196.5721 
 246   0.0000      22.097263       601.2971 
 247   0.0000      22.623203       615.6086 
 248   0.0000      22.637856       616.0074 
 249   0.0000      22.720341       618.2519 
 250   0.0000      22.822989       621.0451 
 251   0.0000      23.215021       631.7128 
 252   0.0000      44.052606      1198.7324 

                    ********************************
                    * MULLIKEN POPULATION ANALYSIS *
                    ********************************

-----------------------
MULLIKEN ATOMIC CHARGES
-----------------------
   0 H :    0.144272
   1 C :   -0.149845
   2 C :   -0.175398
   3 H :    0.141461
   4 C :   -0.121320
   5 H :    0.143621
   6 C :   -0.202793
   7 H :    0.154201
   8 C :    0.253119
   9 C :   -0.217295
  10 H :    0.138070
  11 O :   -0.429037
  12 H :    0.320944
Sum of atomic charges:   -0.0000000

--------------------------------
MULLIKEN REDUCED ORBITAL CHARGES
--------------------------------
  0 H s       :     0.835663  s :     0.835663
      pz      :     0.010630  p :     0.020065
      px      :     0.005461
      py      :     0.003974
  1 C s       :     3.222485  s :     3.222485
      pz      :     0.976004  p :     2.857683
      px      :     0.927591
      py      :     0.954088
      dz2     :     0.012735  d :     0.063201
      dxz     :     0.013758
      dyz     :     0.009365
      dx2y2   :     0.005771
      dxy     :     0.021572
      f0      :     0.001209  f :     0.006476
      f+1     :     0.000873
      f-1     :     0.000732
      f+2     :     0.001158
      f-2     :     0.000379
      f+3     :     0.000737
      f-3     :     0.001389
  2 C s       :     3.225487  s :     3.225487
      pz      :     0.874262  p :     2.883311
      px      :     1.003022
      py      :     1.006027
      dz2     :     0.012210  d :     0.060263
      dxz     :     0.015415
      dyz     :     0.020087
      dx2y2   :     0.007674
      dxy     :     0.004878
      f0      :     0.001434  f :     0.006336
      f+1     :     0.000895
      f-1     :     0.001042
      f+2     :     0.000910
      f-2     :     0.000864
      f+3     :     0.000793
      f-3     :     0.000399
  3 H s       :     0.838375  s :     0.838375
      pz      :     0.002768  p :     0.020164
      px      :     0.013132
      py      :     0.004264
  4 C s       :     3.215635  s :     3.215635
      pz      :     0.976929  p :     2.836773
      px      :     0.907799
      py      :     0.952046
      dz2     :     0.012572  d :     0.062538
      dxz     :     0.013468
      dyz     :     0.009124
      dx2y2   :     0.006695
      dxy     :     0.020679
      f0      :     0.001198  f :     0.006374
      f+1     :     0.000874
      f-1     :     0.000686
      f+2     :     0.001178
      f-2     :     0.000387
      f+3     :     0.000711
      f-3     :     0.001340
  5 H s       :     0.836332  s :     0.836332
      pz      :     0.010783  p :     0.020048
      px      :     0.005330
      py      :     0.003935
  6 C s       :     3.230351  s :     3.230351
      pz      :     0.963900  p :     2.910238
      px      :     0.928245
      py      :     1.018094
      dz2     :     0.008722  d :     0.055611
      dxz     :     0.016683
      dyz     :     0.009281
      dx2y2   :     0.004907
      dxy     :     0.016018
      f0      :     0.001116  f :     0.006592
      f+1     :     0.000919
      f-1     :     0.000676
      f+2     :     0.001373
      f-2     :     0.000383
      f+3     :     0.000766
      f-3     :     0.001360
  7 H s       :     0.825553  s :     0.825553
      pz      :     0.010325  p :     0.020246
      px      :     0.005685
      py      :     0.004236
  8 C s       :     3.082700  s :     3.082700
      pz      :     0.923092  p :     2.497334
      px      :     0.665891
      py      :     0.908352
      dz2     :     0.014861  d :     0.153160
      dxz     :     0.053074
      dyz     :     0.023579
      dx2y2   :     0.014128
      dxy     :     0.047518
      f0      :     0.002769  f :     0.013686
      f+1     :     0.000962
      f-1     :     0.001455
      f+2     :     0.002711
      f-2     :     0.000933
      f+3     :     0.001554
      f-3     :     0.003304
  9 C s       :     3.215778  s :     3.215778
      pz      :     0.941537  p :     2.941280
      px      :     0.945676
      py      :     1.054067
      dz2     :     0.008345  d :     0.053888
      dxz     :     0.015257
      dyz     :     0.008079
      dx2y2   :     0.006363
      dxy     :     0.015843
      f0      :     0.001065  f :     0.006350
      f+1     :     0.000965
      f-1     :     0.000660
      f+2     :     0.001261
      f-2     :     0.000311
      f+3     :     0.000715
      f-3     :     0.001373
 10 H s       :     0.841917  s :     0.841917
      pz      :     0.010587  p :     0.020013
      px      :     0.004979
      py      :     0.004448
 11 O s       :     3.792330  s :     3.792330
      pz      :     1.449654  p :     4.605217
      px      :     1.319965
      py      :     1.835598
      dz2     :     0.009812  d :     0.029752
      dxz     :     0.006665
      dyz     :     0.001755
      dx2y2   :     0.006646
      dxy     :     0.004874
      f0      :     0.000264  f :     0.001738
      f+1     :     0.000354
      f-1     :     0.000043
      f+2     :     0.000253
      f-2     :     0.000025
      f+3     :     0.000489
      f-3     :     0.000309
 12 H s       :     0.632167  s :     0.632167
      pz      :     0.019200  p :     0.046889
      px      :     0.011546
      py      :     0.016143


                     *******************************
                     * LOEWDIN POPULATION ANALYSIS *
                     *******************************

----------------------
LOEWDIN ATOMIC CHARGES
----------------------
   0 H :    0.145042
   1 C :   -0.140765
   2 C :   -0.161543
   3 H :    0.142768
   4 C :   -0.136955
   5 H :    0.145482
   6 C :   -0.123061
   7 H :    0.150112
   8 C :   -0.262493
   9 C :   -0.150374
  10 H :    0.142305
  11 O :    0.061506
  12 H :    0.187975

-------------------------------
LOEWDIN REDUCED ORBITAL CHARGES
-------------------------------
  0 H s       :     0.797389  s :     0.797389
      pz      :     0.028495  p :     0.057569
      px      :     0.016429
      py      :     0.012645
  1 C s       :     2.774574  s :     2.774574
      pz      :     1.015186  p :     2.940751
      px      :     1.045015
      py      :     0.880549
      dz2     :     0.089112  d :     0.384212
      dxz     :     0.142152
      dyz     :     0.029945
      dx2y2   :     0.051505
      dxy     :     0.071498
      f0      :     0.009911  f :     0.041228
      f+1     :     0.006514
      f-1     :     0.004069
      f+2     :     0.008048
      f-2     :     0.002872
      f+3     :     0.004710
      f-3     :     0.005103
  2 C s       :     2.772995  s :     2.772995
      pz      :     1.061943  p :     2.977087
      px      :     0.994050
      py      :     0.921095
      dz2     :     0.134851  d :     0.370681
      dxz     :     0.099747
      dyz     :     0.072458
      dx2y2   :     0.050751
      dxy     :     0.012874
      f0      :     0.011635  f :     0.040780
      f+1     :     0.007786
      f-1     :     0.003526
      f+2     :     0.007564
      f-2     :     0.007004
      f+3     :     0.002715
      f-3     :     0.000550
  3 H s       :     0.798818  s :     0.798818
      pz      :     0.010473  p :     0.058414
      px      :     0.034292
      py      :     0.013649
  4 C s       :     2.774536  s :     2.774536
      pz      :     1.012447  p :     2.938149
      px      :     1.048836
      py      :     0.876865
      dz2     :     0.088741  d :     0.383152
      dxz     :     0.143393
      dyz     :     0.029216
      dx2y2   :     0.051759
      dxy     :     0.070043
      f0      :     0.009871  f :     0.041119
      f+1     :     0.006500
      f-1     :     0.003917
      f+2     :     0.008141
      f-2     :     0.002977
      f+3     :     0.004724
      f-3     :     0.004988
  5 H s       :     0.797042  s :     0.797042
      pz      :     0.028790  p :     0.057476
      px      :     0.016197
      py      :     0.012489
  6 C s       :     2.770156  s :     2.770156
      pz      :     0.996346  p :     2.960907
      px      :     1.041235
      py      :     0.923327
      dz2     :     0.079096  d :     0.351890
      dxz     :     0.142665
      dyz     :     0.026488
      dx2y2   :     0.048117
      dxy     :     0.055524
      f0      :     0.009079  f :     0.040108
      f+1     :     0.006940
      f-1     :     0.003711
      f+2     :     0.008118
      f-2     :     0.002697
      f+3     :     0.004719
      f-3     :     0.004843
  7 H s       :     0.790862  s :     0.790862
      pz      :     0.028282  p :     0.059026
      px      :     0.017042
      py      :     0.013702
  8 C s       :     2.728363  s :     2.728363
      pz      :     1.086666  p :     2.769763
      px      :     0.833481
      py      :     0.849617
      dz2     :     0.152047  d :     0.671468
      dxz     :     0.190690
      dyz     :     0.079975
      dx2y2   :     0.108864
      dxy     :     0.139893
      f0      :     0.021018  f :     0.092898
      f+1     :     0.011917
      f-1     :     0.007537
      f+2     :     0.017146
      f-2     :     0.007162
      f+3     :     0.011733
      f-3     :     0.016385
  9 C s       :     2.771085  s :     2.771085
      pz      :     0.990069  p :     2.981515
      px      :     1.043765
      py      :     0.947681
      dz2     :     0.080198  d :     0.357648
      dxz     :     0.144203
      dyz     :     0.025761
      dx2y2   :     0.049427
      dxy     :     0.058060
      f0      :     0.009064  f :     0.040126
      f+1     :     0.006789
      f-1     :     0.003676
      f+2     :     0.008184
      f-2     :     0.002798
      f+3     :     0.004745
      f-3     :     0.004871
 10 H s       :     0.799377  s :     0.799377
      pz      :     0.028343  p :     0.058319
      px      :     0.015570
      py      :     0.014406
 11 O s       :     3.332853  s :     3.332853
      pz      :     1.439374  p :     4.531212
      px      :     1.369469
      py      :     1.722369
      dz2     :     0.017739  d :     0.069723
      dxz     :     0.022397
      dyz     :     0.000844
      dx2y2   :     0.015129
      dxy     :     0.013614
      f0      :     0.001150  f :     0.004705
      f+1     :     0.000969
      f-1     :     0.000071
      f+2     :     0.000660
      f-2     :     0.000022
      f+3     :     0.000938
      f-3     :     0.000896
 12 H s       :     0.659473  s :     0.659473
      pz      :     0.078360  p :     0.152552
      px      :     0.030731
      py      :     0.043461


                      *****************************
                      * MAYER POPULATION ANALYSIS *
                      *****************************

  NA   - Mulliken gross atomic population
  ZA   - Total nuclear charge
  QA   - Mulliken gross atomic charge
  VA   - Mayer's total valence
  BVA  - Mayer's bonded valence
  FA   - Mayer's free valence

  ATOM       NA         ZA         QA         VA         BVA        FA
  0 H      0.8557     1.0000     0.1443     0.9649     0.9649     0.0000
  1 C      6.1498     6.0000    -0.1498     3.9568     3.9568     0.0000
  2 C      6.1754     6.0000    -0.1754     3.9605     3.9605    -0.0000
  3 H      0.8585     1.0000     0.1415     0.9661     0.9661     0.0000
  4 C      6.1213     6.0000    -0.1213     3.9373     3.9373    -0.0000
  5 H      0.8564     1.0000     0.1436     0.9630     0.9630     0.0000
  6 C      6.2028     6.0000    -0.2028     3.9451     3.9451    -0.0000
  7 H      0.8458     1.0000     0.1542     0.9703     0.9703     0.0000
  8 C      5.7469     6.0000     0.2531     3.9958     3.9958    -0.0000
  9 C      6.2173     6.0000    -0.2173     3.8797     3.8797    -0.0000
 10 H      0.8619     1.0000     0.1381     0.9686     0.9686    -0.0000
 11 O      8.4290     8.0000    -0.4290     2.0220     2.0220    -0.0000
 12 H      0.6791     1.0000     0.3209     0.9142     0.9142    -0.0000

  Mayer bond orders larger than 0.100000
B(  0-H ,  1-C ) :   0.9406 B(  1-C ,  2-C ) :   1.4565 B(  1-C ,  9-C ) :   1.4296 
B(  2-C ,  3-H ) :   0.9502 B(  2-C ,  4-C ) :   1.4344 B(  4-C ,  5-H ) :   0.9507 
B(  4-C ,  6-C ) :   1.4646 B(  6-C ,  7-H ) :   0.9404 B(  6-C ,  8-C ) :   1.4185 
B(  8-C ,  9-C ) :   1.3950 B(  8-C , 11-O ) :   1.0852 B(  9-C , 10-H ) :   0.9302 
B( 11-O , 12-H ) :   0.8865 

-------
TIMINGS
-------

Total SCF time: 0 days 0 hours 0 min 22 sec 

Total time                  ....      22.044 sec
Sum of individual times     ....      20.633 sec  ( 93.6%)

Fock matrix formation       ....      18.447 sec  ( 83.7%)
  Split-RI-J                ....       2.018 sec  ( 10.9% of F)
  Chain of spheres X        ....       8.081 sec  ( 43.8% of F)
  XC integration            ....       6.190 sec  ( 33.6% of F)
    Basis function eval.    ....       0.304 sec  (  4.9% of XC)
    Density eval.           ....       0.740 sec  ( 12.0% of XC)
    XC-Functional eval.     ....       0.174 sec  (  2.8% of XC)
    XC-Potential eval.      ....       1.285 sec  ( 20.8% of XC)
Diagonalization             ....       0.190 sec  (  0.9%)
Density matrix formation    ....       0.029 sec  (  0.1%)
Population analysis         ....       0.096 sec  (  0.4%)
Initial guess               ....       0.294 sec  (  1.3%)
Orbital Transformation      ....       0.000 sec  (  0.0%)
Orbital Orthonormalization  ....       0.000 sec  (  0.0%)
DIIS solution               ....       0.233 sec  (  1.1%)
SOSCF solution              ....       0.161 sec  (  0.7%)
Grid generation             ....       1.182 sec  (  5.4%)

Maximum memory used throughout the entire SCF-calculation: 71.6 MB

-------------------------   --------------------
FINAL SINGLE POINT ENERGY      -307.456134409120
-------------------------   --------------------



           ************************************************************
           *        Program running with 16 parallel MPI-processes    *
           *              working on a common directory               *
           ************************************************************
------------------------------------------------------------------------------
                         ORCA SCF GRADIENT CALCULATION
------------------------------------------------------------------------------

 ... reading COSX grid (gridx3)
Gradient of the Kohn-Sham DFT energy:
Kohn-Sham wavefunction type      ... RKS
Hartree-Fock exchange scaling    ...    0.540
Number of operators              ...    1
Number of atoms                  ...   13
Basis set dimensions             ...  253
Integral neglect threshold       ... 2.5e-11
Integral primitive cutoff        ... 2.5e-12
SHARK Integral package           ... ON

Nuc. rep. gradient       (SHARK) ... done (  0.0 sec)
HCore & Overlap gradient (SHARK) ... done (  0.0 sec)
RI-J gradient            (SHARK) ... done (  0.4 sec)
COSX-gradient                    ... done (  1.5 sec)
Exchange-correlation gradient    ... done

------------------
CARTESIAN GRADIENT
------------------

   1   H   :    0.001717392    0.000255285    0.003007066
   2   C   :    0.005813506    0.000844906    0.010856232
   3   C   :    0.013082656    0.000049742   -0.000384870
   4   H   :    0.003454134    0.000028848   -0.000008383
   5   C   :    0.005967361   -0.000645704   -0.010514690
   6   H   :    0.001642959   -0.000215516   -0.003042226
   7   C   :   -0.005951069   -0.000849305   -0.011590426
   8   H   :   -0.001376723   -0.000284228   -0.002847513
   9   C   :   -0.006373224    0.000005396    0.000773313
  10   C   :   -0.005640424    0.000704119    0.011581005
  11   H   :   -0.001537921    0.000239810    0.003044435
  12   O   :   -0.010388130   -0.000373028   -0.003754378
  13   H   :   -0.000169254    0.000255015    0.002576449

Difference to translation invariance:
           :    0.0002412629    0.0000153386   -0.0003039849

Difference to rotation invariance:
           :   -0.0000137753   -0.0019643892   -0.0000951337

Norm of the cartesian gradient     ...    0.0321718135
RMS gradient                       ...    0.0051516131
MAX gradient                       ...    0.0130826559

-------
TIMINGS
-------

Total SCF gradient time            ...        3.207 sec

One electron gradient       ....       0.034 sec  (  1.1%)
RI-J Coulomb gradient       ....       0.399 sec  ( 12.4%)
COSX gradient               ....       1.548 sec  ( 48.3%)
XC gradient                 ....       0.656 sec  ( 20.4%)

Maximum memory used throughout the entire SCFGRAD-calculation: 45.2 MB
------------------------------------------------------------------------------
                         ORCA GEOMETRY RELAXATION STEP
------------------------------------------------------------------------------

Reading the OPT-File                    .... done
Getting information on internals        .... done
Copying old internal coords+grads       .... done
Making the new internal coordinates     .... (new redundants).... done
Validating the new internal coordinates .... (new redundants).... done
Calculating the B-matrix                .... done
Calculating the G,G- and P matrices     .... done
Transforming gradient to internals      .... done
Projecting the internal gradient        .... done
Number of atoms                         ....  13
Number of internal coordinates          ....  58
Current Energy                          ....  -307.456134409 Eh
Current gradient norm                   ....     0.032171813 Eh/bohr
Maximum allowed component of the step   ....  0.300
Current trust radius                    ....  0.300
Evaluating the initial hessian          ....  (Almloef) done
Projecting the Hessian                  .... done
Forming the augmented Hessian           .... done
Diagonalizing the augmented Hessian     .... done
Last element of RFO vector              ....  0.997373274
Lowest eigenvalues of augmented Hessian:
 -0.003023245  0.023774157  0.023950879  0.024048038  0.024115318
Length of the computed step             ....  0.072623852
The final length of the internal step   ....  0.072623852
Converting the step to cartesian space:
 Initial RMS(Int)=    0.0095359789
Transforming coordinates:
 Iter   0:  RMS(Cart)=    0.0194844506 RMS(Int)=    1.4287992713
 Iter   1:  RMS(Cart)=    0.0000065609 RMS(Int)=    0.0000048168
 Iter   2:  RMS(Cart)=    0.0000000459 RMS(Int)=    0.0000000376
done
Storing new coordinates                 .... done

                                .--------------------.
          ----------------------|Geometry convergence|-------------------------
          Item                value                   Tolerance       Converged
          ---------------------------------------------------------------------
          RMS gradient        0.0055082298            0.0001000000      NO
          MAX gradient        0.0169686903            0.0003000000      NO
          RMS step            0.0095359789            0.0020000000      NO
          MAX step            0.0287545942            0.0040000000      NO
          ........................................................
          Max(Bonds)      0.0152      Max(Angles)    0.22
          Max(Dihed)        0.10      Max(Improp)    0.00
          ---------------------------------------------------------------------

The optimization has not yet converged - more geometry cycles are needed


    ---------------------------------------------------------------------------
                         Redundant Internal Coordinates
                            (Angstroem and degrees)

        Definition                    Value    dE/dq     Step     New-Value
    ----------------------------------------------------------------------------
     1. B(C   1,H   0)                1.0871  0.003478 -0.0050    1.0821   
     2. B(C   2,C   1)                1.4033  0.016300 -0.0144    1.3889   
     3. B(H   3,C   2)                1.0860  0.003435 -0.0049    1.0811   
     4. B(C   4,C   2)                1.4063  0.015917 -0.0142    1.3921   
     5. B(H   5,C   4)                1.0872  0.003438 -0.0050    1.0822   
     6. B(C   6,C   4)                1.4011  0.015738 -0.0138    1.3873   
     7. B(H   7,C   6)                1.0859  0.003154 -0.0045    1.0814   
     8. B(C   8,C   6)                1.4069  0.016593 -0.0149    1.3921   
     9. B(C   9,C   8)                1.4068  0.016969 -0.0152    1.3915   
    10. B(C   9,C   1)                1.4043  0.015824 -0.0141    1.3903   
    11. B(H  10,C   9)                1.0890  0.003440 -0.0050    1.0840   
    12. B(O  11,C   8)                1.3732  0.010615 -0.0094    1.3638   
    13. B(H  12,O  11)                0.9646  0.002546 -0.0026    0.9619   
    14. A(H   0,C   1,C   2)          120.14 -0.000075    0.01    120.15   
    15. A(H   0,C   1,C   9)          119.29 -0.000061    0.01    119.30   
    16. A(C   2,C   1,C   9)          120.57  0.000136   -0.02    120.55   
    17. A(H   3,C   2,C   4)          120.40  0.000024   -0.00    120.39   
    18. A(C   1,C   2,C   4)          119.26 -0.000076    0.01    119.27   
    19. A(C   1,C   2,H   3)          120.34  0.000051   -0.01    120.33   
    20. A(H   5,C   4,C   6)          119.23 -0.000226    0.03    119.26   
    21. A(C   2,C   4,C   6)          120.82  0.000218   -0.03    120.79   
    22. A(C   2,C   4,H   5)          119.96  0.000008   -0.00    119.95   
    23. A(H   7,C   6,C   8)          119.01  0.000199   -0.03    118.98   
    24. A(C   4,C   6,C   8)          119.47  0.000104   -0.01    119.46   
    25. A(C   4,C   6,H   7)          121.52 -0.000303    0.05    121.57   
    26. A(C   6,C   8,C   9)          120.25 -0.000374    0.05    120.30   
    27. A(C   9,C   8,O  11)          122.35  0.000295   -0.04    122.31   
    28. A(C   6,C   8,O  11)          117.40  0.000079   -0.01    117.39   
    29. A(C   1,C   9,H  10)          120.35 -0.000223    0.04    120.39   
    30. A(C   1,C   9,C   8)          119.64 -0.000008   -0.00    119.64   
    31. A(C   8,C   9,H  10)          120.01  0.000231   -0.04    119.97   
    32. A(C   8,O  11,H  12)          108.78 -0.001441    0.22    109.01   
    33. D(C   4,C   2,C   1,H   0)   -179.99  0.000016   -0.03   -180.03   
    34. D(C   4,C   2,C   1,C   9)      0.01  0.000001   -0.00      0.01   
    35. D(H   3,C   2,C   1,C   9)   -179.99 -0.000006    0.01   -179.98   
    36. D(H   3,C   2,C   1,H   0)      0.00  0.000009   -0.02     -0.02   
    37. D(C   6,C   4,C   2,C   1)     -0.01 -0.000008    0.02      0.01   
    38. D(H   5,C   4,C   2,C   1)    179.99  0.000008   -0.02    179.98   
    39. D(H   5,C   4,C   2,H   3)     -0.00  0.000015   -0.03     -0.04   
    40. D(C   6,C   4,C   2,H   3)    179.99 -0.000001    0.00    180.00   
    41. D(C   8,C   6,C   4,H   5)    180.00  0.000004   -0.01    179.99   
    42. D(C   8,C   6,C   4,C   2)     -0.00  0.000020   -0.04     -0.05   
    43. D(H   7,C   6,C   4,H   5)     -0.00  0.000013   -0.03     -0.03   
    44. D(H   7,C   6,C   4,C   2)    180.00  0.000029   -0.06    179.94   
    45. D(O  11,C   8,C   6,C   4)   -179.98 -0.000038    0.08   -179.90   
    46. D(C   9,C   8,C   6,H   7)   -179.98 -0.000033    0.07   -179.91   
    47. D(C   9,C   8,C   6,C   4)      0.02 -0.000024    0.05      0.07   
    48. D(O  11,C   8,C   6,H   7)      0.02 -0.000046    0.10      0.12   
    49. D(H  10,C   9,C   8,O  11)     -0.01  0.000003   -0.01     -0.02   
    50. D(C   1,C   9,C   8,O  11)    179.98  0.000031   -0.07    179.91   
    51. D(C   1,C   9,C   8,C   6)     -0.02  0.000017   -0.04     -0.05   
    52. D(H  10,C   9,C   1,C   2)    180.00  0.000023   -0.05    179.95   
    53. D(H  10,C   9,C   1,H   0)      0.00  0.000008   -0.02     -0.02   
    54. D(H  10,C   9,C   8,C   6)    179.99 -0.000011    0.02    180.01   
    55. D(C   8,C   9,C   1,C   2)      0.00 -0.000005    0.01      0.01   
    56. D(C   8,C   9,C   1,H   0)   -179.99 -0.000020    0.04   -179.95   
    57. D(H  12,O  11,C   8,C   9)      0.03  0.000038   -0.07     -0.04   
    58. D(H  12,O  11,C   8,C   6)   -179.97  0.000052   -0.10   -180.07   
    ----------------------------------------------------------------------------

         *************************************************************
         *                GEOMETRY OPTIMIZATION CYCLE   2            *
         *************************************************************
---------------------------------
CARTESIAN COORDINATES (ANGSTROEM)
---------------------------------
  H      1.500240    0.165713    2.067796
  C      0.962719    0.092353    1.131565
  C      1.658442    0.009566   -0.067669
  H      2.739448    0.018138   -0.073449
  C      0.948446   -0.084761   -1.261382
  H      1.479399   -0.149430   -2.202161
  C     -0.438754   -0.096532   -1.263492
  H     -1.002884   -0.168308   -2.183242
  C     -1.125851   -0.013821   -0.055657
  C     -0.427462    0.081317    1.144180
  H     -0.967855    0.145223    2.081731
  O     -2.488595   -0.031070   -0.106500
  H     -2.836292    0.030613    0.788280

----------------------------
CARTESIAN COORDINATES (A.U.)
----------------------------
  NO LB      ZA    FRAG     MASS         X           Y           Z
   0 H     1.0000    0     1.008    2.835042    0.313153    3.907569
   1 C     6.0000    0    12.011    1.819276    0.174521    2.138347
   2 C     6.0000    0    12.011    3.134001    0.018077   -0.127876
   3 H     1.0000    0     1.008    5.176807    0.034276   -0.138799
   4 C     6.0000    0    12.011    1.792302   -0.160176   -2.383667
   5 H     1.0000    0     1.008    2.795659   -0.282382   -4.161481
   6 C     6.0000    0    12.011   -0.829126   -0.182420   -2.387653
   7 H     1.0000    0     1.008   -1.895176   -0.318055   -4.125729
   8 C     6.0000    0    12.011   -2.127550   -0.026118   -0.105176
   9 C     6.0000    0    12.011   -0.807787    0.153667    2.162187
  10 H     1.0000    0     1.008   -1.828981    0.274432    3.933901
  11 O     8.0000    0    15.999   -4.702762   -0.058713   -0.201255
  12 H     1.0000    0     1.008   -5.359814    0.057851    1.489634

--------------------------------
INTERNAL COORDINATES (ANGSTROEM)
--------------------------------
 H      0   0   0     0.000000000000     0.00000000     0.00000000
 C      1   0   0     1.082053551971     0.00000000     0.00000000
 C      2   1   0     1.388900537715   120.15142374     0.00000000
 H      3   2   1     1.081056066977   120.33377568     0.00000000
 C      3   2   1     1.392099897452   119.27195015   179.97214907
 H      5   3   2     1.082200618957   119.95078810   179.97551179
 C      5   3   2     1.387251530567   120.78900755     0.00000000
 H      7   5   3     1.081357495182   121.56890481   179.93508966
 C      7   5   3     1.392051677129   119.45523927   359.95455395
 C      2   1   3     1.390282718584   119.30182120   179.96534064
 H     10   2   1     1.084024939415   120.38777244     0.00000000
 O      9   7   5     1.363800954522   117.39384965   180.09970158
 H     12   9   7     0.961940205291   109.00708011   179.92547499

---------------------------
INTERNAL COORDINATES (A.U.)
---------------------------
 H      0   0   0     0.000000000000     0.00000000     0.00000000
 C      1   0   0     2.044784875463     0.00000000     0.00000000
 C      2   1   0     2.624641643538   120.15142374     0.00000000
 H      3   2   1     2.042899902001   120.33377568     0.00000000
 C      3   2   1     2.630687557244   119.27195015   179.97214907
 H      5   3   2     2.045062791788   119.95078810   179.97551179
 C      5   3   2     2.621525471635   120.78900755     0.00000000
 H      7   5   3     2.043469518757   121.56890481   179.93508966
 C      7   5   3     2.630596434039   119.45523927   359.95455395
 C      2   1   3     2.627253586848   119.30182120   179.96534064
 H     10   2   1     2.048510257835   120.38777244     0.00000000
 O      9   7   5     2.577210305227   117.39384965   180.09970158
 H     12   9   7     1.817803545208   109.00708011   179.92547499



           ************************************************************
[...]
     19       0.072462  -0.057379  -0.032466  -0.005216  -0.003563   0.002563
     20      -0.007675   0.007009  -0.360653  -0.022968  -0.050005   0.029590
     21       0.016894  -0.009251  -0.013143   0.467279  -0.464806  -0.259506
     22      -0.350237   0.378333  -0.005799   0.012728   0.000541   0.008018
     23       0.014438  -0.020001  -0.466834  -0.259549   0.172473   0.180235
     24      -0.000098   0.000022   0.022506   0.002608   0.007123   0.013852
     25      -0.019545  -0.004704   0.000743  -0.000136   0.003150  -0.004026
     26       0.001097  -0.000874   0.004209  -0.007419   0.045880  -0.048192
     27      -0.000041   0.000382  -0.156266   0.056145   0.098300   0.007484
     28      -0.055275   0.000453   0.026744   0.005933  -0.002262   0.002733
     29       0.006684  -0.003653   0.352297   0.041016  -0.050164   0.033485
     30       0.004967  -0.007021  -0.008848   0.357490   0.467801   0.173363
     31       0.335154   0.062347   0.022034   0.002425   0.008221   0.009825
     32      -0.017181  -0.012105   0.448675   0.210127   0.150404   0.131452
     33       0.001161  -0.000542  -0.002996  -0.017427   0.003004  -0.022552
     34       0.002102  -0.001985   0.000376  -0.000516   0.000273  -0.001540
     35      -0.000053   0.000465   0.006297  -0.003290   0.000969  -0.018647
     36       0.001099   0.002857  -0.066607   0.027406  -0.180054   0.264548
     37       0.013175   0.000077  -0.003397   0.000941  -0.007694   0.010893
     38      -0.000825   0.001745  -0.021178   0.015830  -0.074304   0.099224
                 24         25         26         27         28         29    
      0      -0.415852   0.308191  -0.473142   0.066944  -0.347836   0.293563
      1       0.007345  -0.003877  -0.000491  -0.000358   0.007033  -0.016411
      2       0.256063  -0.177940   0.117248  -0.039093   0.192161  -0.293242
      3      -0.040370  -0.000177  -0.067022  -0.167170   0.056786  -0.155738
      4       0.003793  -0.000832  -0.007590   0.005786  -0.002191  -0.002562
      5       0.039414  -0.001554  -0.100239   0.095270  -0.039512  -0.014435
      6      -0.005365   0.008379  -0.014292   0.001765   0.005087   0.027673
      7      -0.000070   0.001028   0.000151  -0.017959  -0.002333   0.012534
      8      -0.000070   0.011706   0.002829  -0.237503  -0.034037   0.166106
      9      -0.004494   0.010012  -0.024543   0.005530   0.007948   0.029021
     10       0.003473   0.023734  -0.000577   0.033213   0.024335  -0.045334
     11       0.047601   0.346245  -0.004183   0.448560   0.317815  -0.611813
     12      -0.029292  -0.000803  -0.078187   0.167460  -0.054651   0.105923
     13      -0.004388   0.001002   0.005358   0.007947  -0.003629  -0.004129
     14      -0.039599   0.020137   0.087228   0.090675  -0.049090  -0.065354
     15      -0.400716  -0.206478  -0.419714  -0.067305   0.426469  -0.084658
     16      -0.013211  -0.002861  -0.005329  -0.000933   0.014160  -0.013760
     17      -0.250251  -0.093932  -0.090928  -0.042638   0.219892  -0.198650
     18       0.023745  -0.022443   0.105013  -0.204632  -0.048139  -0.140986
     19      -0.001107   0.003525  -0.002788   0.005518   0.001598  -0.001611
     20      -0.007967   0.040881  -0.052648   0.101505   0.029412  -0.003937
     21       0.373623  -0.249786  -0.184931   0.295024   0.336513   0.256810
     22      -0.008264   0.006170   0.005225  -0.007103  -0.008502  -0.014896
     23      -0.219283   0.181431   0.138670  -0.200292  -0.202071  -0.261136
     24      -0.016055   0.026737   0.361327  -0.000307  -0.005150   0.035052
     25      -0.001225  -0.007101   0.005949  -0.012470   0.006258   0.011274
     26      -0.013031  -0.091898   0.033555  -0.166956   0.088260   0.148305
     27       0.049042   0.006825   0.099605   0.210213   0.027027   0.101901
     28       0.002989   0.003153   0.002798   0.009489   0.001389  -0.003257
     29       0.024861   0.039506   0.030550   0.104614   0.017537  -0.053182
     30       0.488104   0.067863  -0.401097  -0.361762  -0.333947  -0.097093
     31       0.019787   0.004715  -0.019776  -0.016032  -0.013810  -0.014023
     32       0.276189   0.081565  -0.278838  -0.222769  -0.183666  -0.188834
     33       0.002048  -0.054224  -0.194748   0.025224  -0.016925  -0.023982
     34      -0.000892  -0.004144  -0.001435   0.001787  -0.003210  -0.003270
     35      -0.012603  -0.052047   0.007133   0.023523  -0.039946  -0.041529
     36       0.144824   0.710195  -0.248582  -0.426116   0.406379   0.294871
     37       0.005126   0.028655  -0.002492  -0.017023   0.014724   0.010368
     38       0.046722   0.264954  -0.010392  -0.169422   0.140109   0.097760
                 30         31         32         33         34         35    
      0      -0.397022   0.105941  -0.318288  -0.146666   0.146143  -0.387590
      1       0.005236   0.010531   0.009053  -0.020326   0.019562  -0.052158
      2       0.146623   0.133853   0.181355  -0.260942   0.250693  -0.668820
      3       0.101318   0.063009   0.291862   0.009867  -0.013445   0.035257
      4      -0.008305   0.010839  -0.009958   0.001707  -0.001627   0.004511
      5      -0.122794   0.135200  -0.167580   0.022120  -0.020795   0.057683
      6      -0.115859  -0.072828  -0.119862  -0.005652   0.038506  -0.025023
      7       0.002288  -0.022921   0.011812  -0.000045   0.000207  -0.000457
      8       0.042702  -0.297774   0.169503   0.000033  -0.001232  -0.003388
      9      -0.141144  -0.078798  -0.138047   0.072920  -0.464360   0.294564
     10      -0.010517   0.022245  -0.013602   0.000516  -0.003390   0.002498
     11      -0.124477   0.310069  -0.169105  -0.000713   0.003883   0.002659
     12       0.152640   0.236471   0.199409   0.002055  -0.031847  -0.017842
     13       0.008058   0.017887  -0.001212  -0.000280   0.003823   0.002339
     14       0.093767   0.215337  -0.032992  -0.003996   0.055899   0.033854
     15      -0.450632  -0.351435  -0.067324  -0.026899   0.370644   0.213402
     16      -0.018005  -0.008441  -0.014177   0.003250  -0.044819  -0.026002
     17      -0.241778  -0.103406  -0.202825   0.047574  -0.654717  -0.379770
     18       0.030560  -0.093742  -0.305999  -0.000111  -0.011575  -0.009048
     19      -0.007556  -0.011286   0.010996   0.000079  -0.001729  -0.001388
     20      -0.104176  -0.138379   0.185083   0.001155  -0.022593  -0.018314
     21      -0.329005  -0.071419   0.347334  -0.006138   0.156718   0.123349
     22       0.001942  -0.013590  -0.010005  -0.000977   0.020209   0.016005
     23       0.086758  -0.179288  -0.201898  -0.012743   0.263181   0.208247
     24      -0.193654   0.113755   0.216248   0.003517   0.000185  -0.001719
     25       0.000671   0.025928  -0.012866   0.000217   0.000090  -0.000070
     26       0.033523   0.332547  -0.198410   0.002449   0.001179  -0.000709
     27       0.093257  -0.226806  -0.230362   0.039569   0.008288  -0.012593
     28       0.008286  -0.018724   0.000326  -0.004890  -0.000911   0.001215
     29       0.099314  -0.223988   0.026275  -0.071410  -0.013494   0.018148
     30      -0.441209   0.350118   0.130675  -0.466464  -0.086724   0.119162
     31      -0.015601   0.008629   0.018229   0.056049   0.010284  -0.013905
     32      -0.184512   0.088578   0.239779   0.820562   0.150652  -0.204114
     33       0.048237  -0.029792  -0.019926  -0.000374  -0.000201   0.000254
     34      -0.000564  -0.003162   0.001838  -0.000022  -0.000013   0.000021
     35      -0.014504  -0.039274   0.028367  -0.000312  -0.000199   0.000191
     36       0.180010   0.281819  -0.249306  -0.007613  -0.001408   0.002071
     37       0.004878   0.010273  -0.007938   0.000111   0.000112  -0.000051
     38       0.043124   0.100161  -0.081620   0.002807   0.001806  -0.001152
                 36         37         38    
      0       0.166078  -0.158317   0.000702
      1       0.022724  -0.021870   0.000034
      2       0.291802  -0.280653   0.000467
      3      -0.014007   0.013127  -0.000169
      4      -0.002115   0.002065   0.000008
      5      -0.027116   0.026730   0.000100
      6      -0.045947   0.058118   0.000182
      7      -0.000193   0.000476   0.000008
      8       0.002217   0.000255  -0.000021
      9       0.520612  -0.644286  -0.000500
     10       0.003717  -0.004870   0.000012
     11      -0.005366   0.002855   0.000057
     12       0.009781   0.020489  -0.000082
     13      -0.000545  -0.002536   0.000015
     14      -0.008604  -0.037001   0.000134
     15      -0.071540  -0.224703   0.000110
     16       0.007866   0.027355  -0.000035
     17       0.116100   0.399425  -0.000588
     18      -0.034740  -0.024820   0.000511
     19      -0.004408  -0.002915  -0.000049
     20      -0.057295  -0.037861  -0.000665
     21       0.394449   0.263061   0.000331
     22       0.050199   0.033209  -0.000033
     23       0.652913   0.431479  -0.000290
     24      -0.001937  -0.001932  -0.000200
     25       0.000184   0.000084   0.000145
     26       0.002686   0.001352   0.002225
     27       0.004810  -0.004362   0.001026
     28      -0.000328   0.000349  -0.000058
     29      -0.005036   0.005455  -0.000778
     30      -0.036188   0.036706  -0.003810
     31       0.004002  -0.004178   0.000180
     32       0.059084  -0.061265   0.003628
     33       0.000183   0.000238  -0.025052
     34      -0.000022  -0.000007   0.003666
     35      -0.000333  -0.000147   0.056921
     36       0.001246   0.001435   0.385687
     37       0.000057  -0.000007  -0.059164
     38       0.000665  -0.000128  -0.918601


-----------
IR SPECTRUM
-----------

 Mode   freq       eps      Int      T**2         TX        TY        TZ
       cm**-1   L/(mol*cm) km/mol    a.u.
----------------------------------------------------------------------------
  6:    234.70   0.000260    1.31  0.000346  ( 0.000163 -0.018551  0.001349)
  7:    343.00   0.021062  106.44  0.019162  (-0.002713  0.138075 -0.009496)
  8:    413.25   0.001967    9.94  0.001486  ( 0.038474  0.001146 -0.002055)
  9:    423.17   0.000089    0.45  0.000066  ( 0.000562 -0.008076  0.000495)
 10:    518.76   0.002874   14.52  0.001729  (-0.000586  0.041499 -0.002501)
 11:    538.83   0.000292    1.48  0.000169  ( 0.012575  0.000240  0.003301)
 12:    633.02   0.000075    0.38  0.000037  (-0.003094 -0.000609 -0.005186)
 13:    707.50   0.005254   26.55  0.002317  ( 0.000565 -0.048025  0.003264)
 14:    777.51   0.012387   62.60  0.004972  ( 0.000600 -0.070356  0.004634)
 15:    840.86   0.000452    2.29  0.000168  ( 0.012949 -0.000418 -0.000166)
 16:    843.72   0.003381   17.09  0.001251  ( 0.035352  0.000617 -0.000595)
 17:    913.78   0.001239    6.26  0.000423  (-0.000228  0.020530 -0.001294)
 18:    977.93   0.000015    0.07  0.000005  (-0.000358 -0.002143  0.000076)
 19:    997.76   0.000034    0.17  0.000011  ( 0.000476  0.003169 -0.000645)
 20:   1021.11   0.000141    0.71  0.000043  (-0.006389 -0.000090 -0.001543)
 21:   1059.67   0.001117    5.65  0.000329  ( 0.018136  0.000373  0.000025)
 22:   1106.41   0.002050   10.36  0.000578  (-0.015008  0.000344  0.018787)
 23:   1171.82   0.004013   20.28  0.001069  ( 0.031202  0.000724  0.009728)
 24:   1193.73   0.000235    1.19  0.000061  (-0.006633  0.000310  0.004162)
 25:   1201.54   0.024241  122.51  0.006296  ( 0.079218  0.001408  0.004295)
 26:   1313.69   0.018400   92.99  0.004371  ( 0.066077  0.000492 -0.002123)
 27:   1343.40   0.002526   12.77  0.000587  (-0.019867  0.001141  0.013814)
 28:   1371.11   0.005593   28.26  0.001273  ( 0.035639  0.000408  0.001622)
 29:   1518.12   0.004677   23.64  0.000961  ( 0.030043 -0.000105 -0.007669)
 30:   1550.89   0.014444   72.99  0.002906  (-0.053839 -0.000666 -0.002701)
 31:   1675.79   0.008181   41.34  0.001523  ( 0.036351  0.001422  0.014145)
 32:   1686.04   0.010153   51.31  0.001879  ( 0.042224 -0.000303 -0.009809)
 33:   3194.56   0.001555    7.86  0.000152  ( 0.011593 -0.000207 -0.004179)
 34:   3213.27   0.000070    0.36  0.000007  (-0.001070  0.000159  0.002383)
 35:   3221.53   0.001396    7.06  0.000135  (-0.003745  0.000837  0.010979)
 36:   3233.69   0.000877    4.43  0.000085  (-0.006970 -0.000569 -0.005980)
 37:   3239.95   0.000395    2.00  0.000038  ( 0.005922 -0.000106 -0.001726)
 38:   3876.64   0.015319   77.42  0.001233  ( 0.026855 -0.001268 -0.022592)

* The epsilon (eps) is given for a Dirac delta lineshape.
** The dipole moment derivative (T) already includes vibrational overlap.

The first frequency considered to be a vibration is 6
The total number of vibrations considered is 33


--------------------------
THERMOCHEMISTRY AT 298.15K
--------------------------

Temperature         ... 298.15 K
Pressure            ... 1.00 atm
Total Mass          ... 94.11 AMU

Throughout the following assumptions are being made:
  (1) The electronic state is orbitally nondegenerate
  (2) There are no thermally accessible electronically excited states
  (3) Hindered rotations indicated by low frequency modes are not
      treated as such but are treated as vibrations and this may
      cause some error
  (4) All equations used are the standard statistical mechanics
      equations for an ideal gas
  (5) All vibrations are strictly harmonic

freq.     234.70  E(vib)   ...       0.32 
freq.     343.00  E(vib)   ...       0.23 
freq.     413.25  E(vib)   ...       0.19 
freq.     423.17  E(vib)   ...       0.18 
freq.     518.76  E(vib)   ...       0.13 
freq.     538.83  E(vib)   ...       0.12 
freq.     633.02  E(vib)   ...       0.09 
freq.     707.50  E(vib)   ...       0.07 
freq.     777.51  E(vib)   ...       0.05 
freq.     840.86  E(vib)   ...       0.04 
freq.     843.72  E(vib)   ...       0.04 
freq.     913.78  E(vib)   ...       0.03 
freq.     977.93  E(vib)   ...       0.03 
freq.     997.76  E(vib)   ...       0.02 
freq.    1021.11  E(vib)   ...       0.02 
freq.    1059.67  E(vib)   ...       0.02 
freq.    1106.41  E(vib)   ...       0.02 
freq.    1171.82  E(vib)   ...       0.01 
freq.    1193.73  E(vib)   ...       0.01 
freq.    1201.54  E(vib)   ...       0.01 
freq.    1313.69  E(vib)   ...       0.01 
freq.    1343.40  E(vib)   ...       0.01 
freq.    1371.11  E(vib)   ...       0.01 
freq.    1518.12  E(vib)   ...       0.00 
freq.    1550.89  E(vib)   ...       0.00 
freq.    1675.79  E(vib)   ...       0.00 
freq.    1686.04  E(vib)   ...       0.00 
freq.    3194.56  E(vib)   ...       0.00 
freq.    3213.27  E(vib)   ...       0.00 
freq.    3221.53  E(vib)   ...       0.00 
freq.    3233.69  E(vib)   ...       0.00 
freq.    3239.95  E(vib)   ...       0.00 
freq.    3876.64  E(vib)   ...       0.00 

------------
INNER ENERGY
------------

The inner energy is: U= E(el) + E(ZPE) + E(vib) + E(rot) + E(trans)
    E(el)   - is the total energy from the electronic structure calculation
              = E(kin-el) + E(nuc-el) + E(el-el) + E(nuc-nuc)
    E(ZPE)  - the the zero temperature vibrational energy from the frequency calculation
    E(vib)  - the the finite temperature correction to E(ZPE) due to population
              of excited vibrational states
    E(rot)  - is the rotational thermal energy
    E(trans)- is the translational thermal energy

Summary of contributions to the inner energy U:
Electronic energy                ...   -307.45788879 Eh
Zero point energy                ...      0.10560845 Eh      66.27 kcal/mol
Thermal vibrational correction   ...      0.00265099 Eh       1.66 kcal/mol
Thermal rotational correction    ...      0.00141627 Eh       0.89 kcal/mol
Thermal translational correction ...      0.00141627 Eh       0.89 kcal/mol
-----------------------------------------------------------------------
Total thermal energy                   -307.34679680 Eh


Summary of corrections to the electronic energy:
(perhaps to be used in another calculation)
Total thermal correction                  0.00548353 Eh       3.44 kcal/mol
Non-thermal (ZPE) correction              0.10560845 Eh      66.27 kcal/mol
-----------------------------------------------------------------------
Total correction                          0.11109198 Eh      69.71 kcal/mol


--------
ENTHALPY
--------

The enthalpy is H = U + kB*T
                kB is Boltzmann's constant
Total free energy                 ...   -307.34679680 Eh 
Thermal Enthalpy correction       ...      0.00094421 Eh       0.59 kcal/mol
-----------------------------------------------------------------------
Total Enthalpy                    ...   -307.34585260 Eh


Note: Only C1 symmetry has been detected, increase convergence thresholds 
      if your molecule has a higher symmetry. Symmetry factor of 1.0 is   
      used for the rotational entropy correction. 
 

Note: Rotational entropy computed according to Herzberg 
Infrared and Raman Spectra, Chapter V,1, Van Nostrand Reinhold, 1945 
Point Group:  C1, Symmetry Number:   1  
Rotational constants in cm-1:     0.190491     0.088128     0.060253 

Vibrational entropy computed according to the QRRHO of S. Grimme
Chem.Eur.J. 2012 18 9955


-------
ENTROPY
-------

The entropy contributions are T*S = T*(S(el)+S(vib)+S(rot)+S(trans))
     S(el)   - electronic entropy
     S(vib)  - vibrational entropy
     S(rot)  - rotational entropy
     S(trans)- translational entropy
The entropies will be listed as multiplied by the temperature to get
units of energy

Electronic entropy                ...      0.00000000 Eh      0.00 kcal/mol
Vibrational entropy               ...      0.00384058 Eh      2.41 kcal/mol
Rotational entropy                ...      0.01276650 Eh      8.01 kcal/mol
Translational entropy             ...      0.01878531 Eh     11.79 kcal/mol
-----------------------------------------------------------------------
Final entropy term                ...      0.03539239 Eh     22.21 kcal/mol

In case the symmetry of your molecule has not been determined correctly
or in case you have a reason to use a different symmetry number we print 
out the resulting rotational entropy values for sn=1,12 :
 --------------------------------------------------------
|  sn= 1 | S(rot)=       0.01276650 Eh      8.01 kcal/mol|
|  sn= 2 | S(rot)=       0.01211204 Eh      7.60 kcal/mol|
|  sn= 3 | S(rot)=       0.01172921 Eh      7.36 kcal/mol|
|  sn= 4 | S(rot)=       0.01145759 Eh      7.19 kcal/mol|
|  sn= 5 | S(rot)=       0.01124690 Eh      7.06 kcal/mol|
|  sn= 6 | S(rot)=       0.01107475 Eh      6.95 kcal/mol|
|  sn= 7 | S(rot)=       0.01092921 Eh      6.86 kcal/mol|
|  sn= 8 | S(rot)=       0.01080313 Eh      6.78 kcal/mol|
|  sn= 9 | S(rot)=       0.01069192 Eh      6.71 kcal/mol|
|  sn=10 | S(rot)=       0.01059244 Eh      6.65 kcal/mol|
|  sn=11 | S(rot)=       0.01050245 Eh      6.59 kcal/mol|
|  sn=12 | S(rot)=       0.01042030 Eh      6.54 kcal/mol|
 --------------------------------------------------------


-------------------
GIBBS FREE ENERGY
-------------------

The Gibbs free energy is G = H - T*S

Total enthalpy                    ...   -307.34585260 Eh 
Total entropy correction          ...     -0.03539239 Eh    -22.21 kcal/mol
-----------------------------------------------------------------------
Final Gibbs free energy         ...   -307.38124499 Eh

For completeness - the Gibbs free energy minus the electronic energy
G-E(el)                           ...      0.07664380 Eh     48.09 kcal/mol


Timings for individual modules:

Sum of individual times         ...      271.386 sec (=   4.523 min)
GTO integral calculation        ...       15.272 sec (=   0.255 min)   5.6 %
SCF iterations                  ...       93.692 sec (=   1.562 min)  34.5 %
SCF Gradient evaluation         ...       26.618 sec (=   0.444 min)   9.8 %
Geometry relaxation             ...        0.686 sec (=   0.011 min)   0.3 %
Analytical frequency calculation...      135.117 sec (=   2.252 min)  49.8 %
                             ****ORCA TERMINATED NORMALLY****
TOTAL RUN TIME: 0 days 0 hours 4 minutes 57 seconds 540 msec
