
                                 *****************
                                 * O   R   C   A *
                                 *****************

                                            #,                                       
                                            ###                                      
                                            ####                                     
                                            #####                                    
                                            ######                                   
                                           ########,                                 
                                     ,,################,,,,,                         
                               ,,#################################,,                 
                          ,,##########################################,,             
                       ,#########################################, ''#####,          
                    ,#############################################,,   '####,        
                  ,##################################################,,,,####,       
                ,###########''''           ''''###############################       
              ,#####''   ,,,,##########,,,,          '''####'''          '####       
            ,##' ,,,,###########################,,,                        '##       
           ' ,,###''''                  '''############,,,                           
         ,,##''                                '''############,,,,        ,,,,,,###''
      ,#''                                            '''#######################'''  
     '                                                          ''''####''''         
             ,#######,   #######,   ,#######,      ##                                
            ,#'     '#,  ##    ##  ,#'     '#,    #''#        ######   ,####,        
            ##       ##  ##   ,#'  ##            #'  '#       #        #'  '#        
            ##       ##  #######   ##           ,######,      #####,   #    #        
            '#,     ,#'  ##    ##  '#,     ,#' ,#      #,         ##   #,  ,#        
             '#######'   ##     ##  '#######'  #'      '#     #####' # '####'        



                  #######################################################
                  #                        -***-                        #
                  #          Department of theory and spectroscopy      #
                  #    Directorship and core code : Frank Neese         #
                  #        Max Planck Institute fuer Kohlenforschung    #
                  #                Kaiser Wilhelm Platz 1               #
                  #                 D-45470 Muelheim/Ruhr               #
                  #                      Germany                        #
                  #                                                     #
                  #                  All rights reserved                #
                  #                        -***-                        #
                  #######################################################


                         Program Version 5.0.4 -  RELEASE  -


 With contributions from (in alphabetic order):
   Daniel Aravena         : Magnetic Suceptibility
   Michael Atanasov       : Ab Initio Ligand Field Theory (pilot matlab implementation)
   Alexander A. Auer      : GIAO ZORA, VPT2 properties, NMR spectrum
   Ute Becker             : Parallelization
   Giovanni Bistoni       : ED, misc. LED, open-shell LED, HFLD
   Martin Brehm           : Molecular dynamics
   Dmytro Bykov           : SCF Hessian
   Vijay G. Chilkuri      : MRCI spin determinant printing, contributions to CSF-ICE
   Dipayan Datta          : RHF DLPNO-CCSD density
   Achintya Kumar Dutta   : EOM-CC, STEOM-CC
   Dmitry Ganyushin       : Spin-Orbit,Spin-Spin,Magnetic field MRCI
   Miquel Garcia          : C-PCM and meta-GGA Hessian, CC/C-PCM, Gaussian charge scheme
   Yang Guo               : DLPNO-NEVPT2, F12-NEVPT2, CIM, IAO-localization
   Andreas Hansen         : Spin unrestricted coupled pair/coupled cluster methods
   Benjamin Helmich-Paris : MC-RPA, TRAH-SCF, COSX integrals
   Lee Huntington         : MR-EOM, pCC
   Robert Izsak           : Overlap fitted RIJCOSX, COSX-SCS-MP3, EOM
   Marcus Kettner         : VPT2
   Christian Kollmar      : KDIIS, OOCD, Brueckner-CCSD(T), CCSD density, CASPT2, CASPT2-K
   Simone Kossmann        : Meta GGA functionals, TD-DFT gradient, OOMP2, MP2 Hessian
   Martin Krupicka        : Initial AUTO-CI
   Lucas Lang             : DCDCAS
   Marvin Lechner         : AUTO-CI (C++ implementation), FIC-MRCC
   Dagmar Lenk            : GEPOL surface, SMD
   Dimitrios Liakos       : Extrapolation schemes; Compound Job, initial MDCI parallelization
   Dimitrios Manganas     : Further ROCIS development; embedding schemes
   Dimitrios Pantazis     : SARC Basis sets
   Anastasios Papadopoulos: AUTO-CI, single reference methods and gradients
   Taras Petrenko         : DFT Hessian,TD-DFT gradient, ASA, ECA, R-Raman, ABS, FL, XAS/XES, NRVS
   Peter Pinski           : DLPNO-MP2, DLPNO-MP2 Gradient
   Christoph Reimann      : Effective Core Potentials
   Marius Retegan         : Local ZFS, SOC
   Christoph Riplinger    : Optimizer, TS searches, QM/MM, DLPNO-CCSD(T), (RO)-DLPNO pert. Triples
   Tobias Risthaus        : Range-separated hybrids, TD-DFT gradient, RPA, STAB
   Michael Roemelt        : Original ROCIS implementation
   Masaaki Saitow         : Open-shell DLPNO-CCSD energy and density
   Barbara Sandhoefer     : DKH picture change effects
   Avijit Sen             : IP-ROCIS
   Kantharuban Sivalingam : CASSCF convergence, NEVPT2, FIC-MRCI
   Bernardo de Souza      : ESD, SOC TD-DFT
   Georgi Stoychev        : AutoAux, RI-MP2 NMR, DLPNO-MP2 response
   Willem Van den Heuvel  : Paramagnetic NMR
   Boris Wezisla          : Elementary symmetry handling
   Frank Wennmohs         : Technical directorship


 We gratefully acknowledge several colleagues who have allowed us to
 interface, adapt or use parts of their codes:
   Stefan Grimme, W. Hujo, H. Kruse, P. Pracht,  : VdW corrections, initial TS optimization,
                  C. Bannwarth, S. Ehlert          DFT functionals, gCP, sTDA/sTD-DF
   Ed Valeev, F. Pavosevic, A. Kumar             : LibInt (2-el integral package), F12 methods
   Garnet Chan, S. Sharma, J. Yang, R. Olivares  : DMRG
   Ulf Ekstrom                                   : XCFun DFT Library
   Mihaly Kallay                                 : mrcc  (arbitrary order and MRCC methods)
   Jiri Pittner, Ondrej Demel                    : Mk-CCSD
   Frank Weinhold                                : gennbo (NPA and NBO analysis)
   Christopher J. Cramer and Donald G. Truhlar   : smd solvation model
   Lars Goerigk                                  : TD-DFT with DH, B97 family of functionals
   V. Asgeirsson, H. Jonsson                     : NEB implementation
   FAccTs GmbH                                   : IRC, NEB, NEB-TS, DLPNO-Multilevel, CI-OPT
                                                   MM, QMMM, 2- and 3-layer-ONIOM, Crystal-QMMM,
                                                   LR-CPCM, SF, NACMEs, symmetry and pop. for TD-DFT,
                                                   nearIR, NL-DFT gradient (VV10), updates on ESD,
                                                   ML-optimized integration grids
   S Lehtola, MJT Oliveira, MAL Marques          : LibXC Library
   Liviu Ungur et al                             : ANISO software


 Your calculation uses the libint2 library for the computation of 2-el integrals
 For citations please refer to: http://libint.valeyev.net

 Your ORCA version has been built with support for libXC version: 5.1.0
 For citations please refer to: https://tddft.org/programs/libxc/

 This ORCA versions uses:
   CBLAS   interface :  Fast vector & matrix operations
   LAPACKE interface :  Fast linear algebra routines
   SCALAPACK package :  Parallel linear algebra routines
   Shared memory     :  Shared parallel matrices
   BLAS/LAPACK       :  OpenBLAS 0.3.15  USE64BITINT DYNAMIC_ARCH NO_AFFINITY SkylakeX SINGLE_THREADED
        Core in use  :  SkylakeX
   Copyright (c) 2011-2014, The OpenBLAS Project




***************************************
The coordinates will be read from file: opt_EPRII.xyz
***************************************


XCFun DFT library Copyright 2009-2010 Ulf Ekstrom and contributors.
See http://admol.org/xcfun for more information.
This is free software; see the source code for copying conditions.
There is ABSOLUTELY NO WARRANTY; not even for MERCHANTABILITY or FITNESS FOR A PARTICULAR PURPOSE.
For details see the documentation.
Scientific users of this library should cite U. Ekstrom, L. Visscher, R. Bast, A. J. Thorvaldsen and K. Ruud;
J.Chem.Theor.Comp. 2010, DOI: 10.1021/ct100117s
XCFun Version 0.99 

================================================================================

----- Orbital basis set information -----
Your calculation utilizes the basis: def2-TZVP
   F. Weigend and R. Ahlrichs, Phys. Chem. Chem. Phys. 7, 3297 (2005).

----- AuxJ basis set information -----
Your calculation utilizes the auxiliary basis: def2/J
   F. Weigend, Phys. Chem. Chem. Phys. 8, 1057 (2006).

================================================================================
                                        WARNINGS
                       Please study these warnings very carefully!
================================================================================


WARNING: Geometry Optimization
  ===> : Switching off AutoStart
         For restart on a previous wavefunction, please use MOREAD

WARNING: Minnesota functionals are quite sensitive to the integration grid.
         see SE Wheeler, KN Houk, JCTC 2010, 6, 395,
             N Mardirossian, M Head-Gordon, JCTC 2016, 12, 4303.
         DEFGRID3 seems to be a minimum grid for reliable results with these functionals!
  ===> : Please increase the integration grid!


INFO   : the flag for use of the SHARK integral package has been found!

================================================================================
                                       INPUT FILE
================================================================================
NAME = freq.inp
|  1> ! M062X def2-TZVP OPT FREQ
|  2> %pal nprocs 16 end
|  3> *XYZFile 0 1 opt_EPRII.xyz
|  4> 
|  5>                          ****END OF INPUT****
================================================================================

                       *****************************
                       * Geometry Optimization Run *
                       *****************************

Geometry optimization settings:
Update method            Update   .... BFGS
Choice of coordinates    CoordSys .... Z-matrix Internals
Initial Hessian          InHess   .... Almoef's Model

Convergence Tolerances:
Energy Change            TolE     ....  5.0000e-06 Eh
Max. Gradient            TolMAXG  ....  3.0000e-04 Eh/bohr
RMS Gradient             TolRMSG  ....  1.0000e-04 Eh/bohr
Max. Displacement        TolMAXD  ....  4.0000e-03 bohr
RMS Displacement         TolRMSD  ....  2.0000e-03 bohr
Strict Convergence                ....  False
------------------------------------------------------------------------------
                        ORCA OPTIMIZATION COORDINATE SETUP
------------------------------------------------------------------------------

The optimization will be done in new redundant internal coordinates
Making redundant internal coordinates   ...  (new redundants) done
Evaluating the initial hessian          ...  (Almloef) done
Evaluating the coordinates              ...  done
Calculating the B-matrix                .... done
Calculating the G-matrix                .... done
Diagonalizing the G-matrix              .... done
The first mode is                       ....   40
The number of degrees of freedom        ....   57

    -----------------------------------------------------------------
                    Redundant Internal Coordinates


    -----------------------------------------------------------------
         Definition                    Initial Value    Approx d2E/dq
    -----------------------------------------------------------------
      1. B(C   1,N   0)                  1.4651         0.424713   
      2. B(C   2,N   0)                  1.3181         0.728747   
      3. B(C   3,C   2)                  1.3875         0.630638   
      4. B(O   4,C   3)                  1.3591         0.626931   
      5. B(H   5,O   4)                  0.9670         0.506821   
      6. B(C   6,C   3)                  1.3910         0.622407   
      7. B(C   7,C   6)                  1.5069         0.406605   
      8. B(C   8,C   6)                  1.3857         0.634744   
      9. B(C   9,C   8)                  1.5070         0.406447   
     10. B(C  10,C   8)                  1.3821         0.643106   
     11. B(C  10,N   0)                  1.3188         0.726950   
     12. B(H  11,C   1)                  1.0900         0.360066   
     13. B(H  12,C   1)                  1.0900         0.360131   
     14. B(H  13,C   1)                  1.0900         0.360164   
     15. B(H  14,C   2)                  1.0800         0.373612   
     16. B(H  15,C   7)                  1.0900         0.360152   
     17. B(H  16,C   7)                  1.0900         0.360092   
     18. B(H  17,C   9)                  1.0900         0.360089   
     19. B(H  18,C   9)                  1.0899         0.360177   
     20. B(H  19,C   9)                  1.0900         0.360125   
     21. B(H  20,C  10)                  1.0800         0.373533   
     22. A(C   1,N   0,C   2)          119.1080         0.412165   
     23. A(C   2,N   0,C  10)          121.7828         0.453967   
     24. A(C   1,N   0,C  10)          119.1087         0.411985   
     25. A(N   0,C   1,H  12)          109.4714         0.329264   
     26. A(H  12,C   1,H  13)          109.4750         0.290851   
     27. A(H  11,C   1,H  12)          109.4708         0.290839   
     28. A(H  11,C   1,H  13)          109.4750         0.290843   
     29. A(N   0,C   1,H  11)          109.4642         0.329254   
     30. A(N   0,C   1,H  13)          109.4709         0.329268   
     31. A(C   3,C   2,H  14)          119.6612         0.356145   
     32. A(N   0,C   2,H  14)          119.6587         0.362761   
     33. A(N   0,C   2,C   3)          120.6801         0.445346   
     34. A(C   2,C   3,O   4)          120.4750         0.433413   
     35. A(O   4,C   3,C   6)          120.4720         0.432390   
     36. A(C   2,C   3,C   6)          119.0530         0.435701   
     37. A(C   3,O   4,H   5)          114.0067         0.369197   
     38. A(C   3,C   6,C   7)          120.8119         0.402916   
     39. A(C   7,C   6,C   8)          120.8166         0.404314   
     40. A(C   3,C   6,C   8)          118.3715         0.436211   
     41. A(H  15,C   7,H  16)          109.4681         0.290845   
     42. A(C   6,C   7,H  16)          109.4758         0.328874   
     43. A(C   6,C   7,H  15)          109.4703         0.328883   
     44. A(C   9,C   8,C  10)          120.3840         0.405221   
     45. A(C   6,C   8,C  10)          119.2267         0.438791   
     46. A(C   6,C   8,C   9)          120.3888         0.404286   
     47. A(C   8,C   9,H  19)          109.4678         0.328858   
     48. A(H  17,C   9,H  18)          109.4731         0.290848   
     49. A(C   8,C   9,H  18)          109.4721         0.328865   
     50. A(C   8,C   9,H  17)          109.4693         0.328852   
     51. A(H  17,C   9,H  19)          109.4691         0.290841   
     52. A(H  18,C   9,H  19)          109.4760         0.290852   
     53. A(N   0,C  10,C   8)          120.8842         0.446728   
     54. A(C   8,C  10,H  20)          119.5582         0.357319   
     55. A(N   0,C  10,H  20)          119.5561         0.362595   
     56. D(H  13,C   1,N   0,C   2)    -29.9962         0.015379   
     57. D(H  11,C   1,N   0,C  10)    -90.2720         0.015379   
     58. D(H  11,C   1,N   0,C   2)     90.0039         0.015379   
     59. D(H  13,C   1,N   0,C  10)    149.7279         0.015379   
     60. D(H  12,C   1,N   0,C   2)   -150.0008         0.015379   
     61. D(H  12,C   1,N   0,C  10)     29.7233         0.015379   
     62. D(C   3,C   2,N   0,C   1)    179.9962         0.044316   
     63. D(H  14,C   2,N   0,C  10)   -179.7399         0.044316   
     64. D(H  14,C   2,N   0,C   1)     -0.0235         0.044316   
     65. D(C   3,C   2,N   0,C  10)      0.2798         0.044316   
     66. D(C   6,C   3,C   2,H  14)    179.9961         0.027579   
     67. D(C   6,C   3,C   2,N   0)     -0.0236         0.027579   
     68. D(O   4,C   3,C   2,H  14)      0.0227         0.027579   
     69. D(O   4,C   3,C   2,N   0)   -179.9970         0.027579   
     70. D(H   5,O   4,C   3,C   2)     90.0004         0.028884   
     71. D(H   5,O   4,C   3,C   6)    -89.9726         0.028884   
     72. D(C   8,C   6,C   3,O   4)    179.9778         0.026819   
     73. D(C   8,C   6,C   3,C   2)      0.0044         0.026819   
     74. D(C   7,C   6,C   3,O   4)     -0.0054         0.026819   
     75. D(C   7,C   6,C   3,C   2)   -179.9788         0.026819   
     76. D(H  16,C   7,C   6,C   8)    150.0170         0.011348   
     77. D(H  16,C   7,C   6,C   3)    -30.0002         0.011348   
     78. D(H  15,C   7,C   6,C   8)     30.0186         0.011348   
     79. D(H  15,C   7,C   6,C   3)   -149.9986         0.011348   
     80. D(C  10,C   8,C   6,C   7)    179.7596         0.027962   
     81. D(C  10,C   8,C   6,C   3)     -0.2236         0.027962   
     82. D(C   9,C   8,C   6,C   7)      0.0030         0.027962   
     83. D(C   9,C   8,C   6,C   3)   -179.9802         0.027962   
     84. D(H  18,C   9,C   8,C   6)   -150.0034         0.012243   
     85. D(H  17,C   9,C   8,C  10)    -89.7588         0.012243   
     86. D(H  17,C   9,C   8,C   6)     89.9949         0.012243   
     87. D(H  19,C   9,C   8,C  10)    150.2471         0.012243   
     88. D(H  19,C   9,C   8,C   6)    -29.9992         0.012243   
     89. D(H  18,C   9,C   8,C  10)     30.2429         0.012243   
     90. D(H  20,C  10,C   8,C   9)     -0.2189         0.028754   
     91. D(H  20,C  10,C   8,C   6)   -179.9755         0.028754   
     92. D(N   0,C  10,C   8,C   9)   -179.7646         0.028754   
     93. D(N   0,C  10,C   8,C   6)      0.4787         0.028754   
     94. D(H  20,C  10,N   0,C   2)    179.9432         0.044075   
     95. D(H  20,C  10,N   0,C   1)      0.2267         0.044075   
     96. D(C   8,C  10,N   0,C   2)     -0.5111         0.044075   
     97. D(C   8,C  10,N   0,C   1)    179.7725         0.044075   
    -----------------------------------------------------------------

Number of atoms                         .... 21
Number of degrees of freedom            .... 97

         *************************************************************
         *                GEOMETRY OPTIMIZATION CYCLE   1            *
         *************************************************************
---------------------------------
CARTESIAN COORDINATES (ANGSTROEM)
---------------------------------
  N     -1.639000   -0.028000   -0.002500
  C     -3.104000   -0.042300    0.001900
  C     -1.009100    1.129800   -0.013900
  C      0.377400    1.181400   -0.018300
  O      1.022600    2.377500   -0.030000
  H      1.211900    2.731000    0.849900
  C      1.097700   -0.008600   -0.010000
  C      2.604600    0.001200   -0.013900
  C      0.395600   -1.203200    0.002300
  C      1.130100   -2.519100    0.012100
  C     -0.986200   -1.173800    0.010600
  H     -3.470200   -0.054400   -1.024700
  H     -3.457100   -0.931500    0.524100
  H     -3.474500    0.848300    0.509400
  H     -1.578100    2.047700   -0.020200
  H      2.972400   -0.890700   -0.521100
  H      2.960900    0.889100   -0.536200
  H      1.309800   -2.827200    1.042100
  H      0.528800   -3.274600   -0.493500
  H      2.083000   -2.407100   -0.505100
  H     -1.538800   -2.101700    0.020600

----------------------------
CARTESIAN COORDINATES (A.U.)
----------------------------
  NO LB      ZA    FRAG     MASS         X           Y           Z
   0 N     7.0000    0    14.007   -3.097261   -0.052912   -0.004724
   1 C     6.0000    0    12.011   -5.865710   -0.079935    0.003590
   2 C     6.0000    0    12.011   -1.906923    2.135013   -0.026267
   3 C     6.0000    0    12.011    0.713183    2.232522   -0.034582
   4 O     8.0000    0    15.999    1.932434    4.492824   -0.056692
   5 H     1.0000    0     1.008    2.290159    5.160842    1.606078
   6 C     6.0000    0    12.011    2.074352   -0.016252   -0.018897
   7 C     6.0000    0    12.011    4.921981    0.002268   -0.026267
   8 C     6.0000    0    12.011    0.747576   -2.273718    0.004346
   9 C     6.0000    0    12.011    2.135580   -4.760409    0.022866
  10 C     6.0000    0    12.011   -1.863648   -2.218161    0.020031
  11 H     1.0000    0     1.008   -6.557728   -0.102801   -1.936402
  12 H     1.0000    0     1.008   -6.532972   -1.760280    0.990405
  13 H     1.0000    0     1.008   -6.565853    1.603055    0.962626
  14 H     1.0000    0     1.008   -2.982177    3.869592   -0.038172
  15 H     1.0000    0     1.008    5.617022   -1.683179   -0.984736
  16 H     1.0000    0     1.008    5.595290    1.680156   -1.013271
  17 H     1.0000    0     1.008    2.475163   -5.342634    1.969284
  18 H     1.0000    0     1.008    0.999287   -6.188097   -0.932580
  19 H     1.0000    0     1.008    3.936300   -4.548760   -0.954501
  20 H     1.0000    0     1.008   -2.907911   -3.971637    0.038928

--------------------------------
INTERNAL COORDINATES (ANGSTROEM)
--------------------------------
 N      0   0   0     0.000000000000     0.00000000     0.00000000
 C      1   0   0     1.465076397325     0.00000000     0.00000000
 C      1   2   0     1.318106524527   119.10797765     0.00000000
 C      3   1   2     1.387466817621   120.68008137   179.99623036
 O      4   3   1     1.359071425643   120.47503414   180.00299587
 H      5   4   3     0.966964709801   114.00668708    90.00037406
 C      4   3   1     1.391043126578   119.05296922   359.97637115
 C      7   4   3     1.506936913079   120.81190682   180.02122456
 C      7   4   3     1.385700133507   118.37145526     0.00000000
 C      9   7   4     1.507043164611   120.38876869   180.01979887
 C      1   2   3     1.318778635708   119.10866356   179.72411720
 H      2   1   3     1.090025875840   109.46419075    90.00390716
 H      2   1   3     1.089976646539   109.47141296   209.99920244
 H      2   1   3     1.089951769575   109.47093075   330.00378798
 H      3   1   2     1.079972731137   119.65869762   359.97650754
 H      8   7   4     1.089960682777   109.47028151   210.00135149
 H      8   7   4     1.090006142185   109.47578485   329.99975177
 H     10   9   7     1.090008119236   109.46934666    89.99493152
 H     10   9   7     1.089941879184   109.47206789   209.99661413
 H     10   9   7     1.089980848456   109.46775394   330.00084856
 H     11   1   2     1.080030170875   119.55605401     0.22674066

---------------------------
INTERNAL COORDINATES (A.U.)
---------------------------
 N      0   0   0     0.000000000000     0.00000000     0.00000000
 C      1   0   0     2.768593156217     0.00000000     0.00000000
 C      1   2   0     2.490860346690   119.10797765     0.00000000
 C      3   1   2     2.621932305207   120.68008137   179.99623036
 O      4   3   1     2.568272790904   120.47503414   180.00299587
 H      5   4   3     1.827298482690   114.00668708    90.00037406
 C      4   3   1     2.628690549706   119.05296922   359.97637115
 C      7   4   3     2.847698066816   120.81190682   180.02122456
 C      7   4   3     2.618593756065   118.37145526     0.00000000
 C      9   7   4     2.847898853112   120.38876869   180.01979887
 C      1   2   3     2.492130452755   119.10866356   179.72411720
 H      2   1   3     2.059850384225   109.46419075    90.00390716
 H      2   1   3     2.059757354328   109.47141296   209.99920244
 H      2   1   3     2.059710343680   109.47093075   330.00378798
 H      3   1   2     2.040852693952   119.65869762   359.97650754
 H      8   7   4     2.059727187191   109.47028151   210.00135149
 H      8   7   4     2.059813093021   109.47578485   329.99975177
 H     10   9   7     2.059816829106   109.46934666    89.99493152
 H     10   9   7     2.059691653550   109.47206789   209.99661413
 H     10   9   7     2.059765294800   109.46775394   330.00084856
 H     11   1   2     2.040961239326   119.55605401     0.22674066

---------------------
BASIS SET INFORMATION
---------------------
There are 4 groups of distinct atoms

 Group   1 Type N   : 11s6p2d1f contracted to 5s3p2d1f pattern {62111/411/11/1}
 Group   2 Type C   : 11s6p2d1f contracted to 5s3p2d1f pattern {62111/411/11/1}
 Group   3 Type O   : 11s6p2d1f contracted to 5s3p2d1f pattern {62111/411/11/1}
 Group   4 Type H   : 5s1p contracted to 3s1p pattern {311/1}

Atom   0N    basis set group =>   1
Atom   1C    basis set group =>   2
Atom   2C    basis set group =>   2
Atom   3C    basis set group =>   2
Atom   4O    basis set group =>   3
Atom   5H    basis set group =>   4
Atom   6C    basis set group =>   2
Atom   7C    basis set group =>   2
Atom   8C    basis set group =>   2
Atom   9C    basis set group =>   2
Atom  10C    basis set group =>   2
Atom  11H    basis set group =>   4
Atom  12H    basis set group =>   4
Atom  13H    basis set group =>   4
Atom  14H    basis set group =>   4
Atom  15H    basis set group =>   4
Atom  16H    basis set group =>   4
Atom  17H    basis set group =>   4
Atom  18H    basis set group =>   4
Atom  19H    basis set group =>   4
Atom  20H    basis set group =>   4
---------------------------------
AUXILIARY/J BASIS SET INFORMATION
---------------------------------
There are 4 groups of distinct atoms

 Group   1 Type N   : 12s5p4d2f1g contracted to 6s4p3d1f1g pattern {711111/2111/211/2/1}
 Group   2 Type C   : 12s5p4d2f1g contracted to 6s4p3d1f1g pattern {711111/2111/211/2/1}
 Group   3 Type O   : 12s5p4d2f1g contracted to 6s4p3d1f1g pattern {711111/2111/211/2/1}
 Group   4 Type H   : 5s2p1d contracted to 3s1p1d pattern {311/2/1}

Atom   0N    basis set group =>   1
Atom   1C    basis set group =>   2
Atom   2C    basis set group =>   2
Atom   3C    basis set group =>   2
Atom   4O    basis set group =>   3
Atom   5H    basis set group =>   4
Atom   6C    basis set group =>   2
Atom   7C    basis set group =>   2
Atom   8C    basis set group =>   2
Atom   9C    basis set group =>   2
Atom  10C    basis set group =>   2
Atom  11H    basis set group =>   4
Atom  12H    basis set group =>   4
Atom  13H    basis set group =>   4
Atom  14H    basis set group =>   4
Atom  15H    basis set group =>   4
Atom  16H    basis set group =>   4
Atom  17H    basis set group =>   4
Atom  18H    basis set group =>   4
Atom  19H    basis set group =>   4
Atom  20H    basis set group =>   4


           ************************************************************
           *        Program running with 16 parallel MPI-processes    *
           *              working on a common directory               *
           ************************************************************
------------------------------------------------------------------------------
                           ORCA GTO INTEGRAL CALCULATION
                           -- RI-GTO INTEGRALS CHOSEN --
------------------------------------------------------------------------------
------------------------------------------------------------------------------
                   ___                                                        
                  /   \      - P O W E R E D   B Y -                         
                 /     \                                                     
                 |  |  |   _    _      __       _____    __    __             
                 |  |  |  | |  | |    /  \     |  _  \  |  |  /  |          
                  \  \/   | |  | |   /    \    | | | |  |  | /  /          
                 / \  \   | |__| |  /  /\  \   | |_| |  |  |/  /          
                |  |  |   |  __  | /  /__\  \  |    /   |      \           
                |  |  |   | |  | | |   __   |  |    \   |  |\   \          
                \     /   | |  | | |  |  |  |  | |\  \  |  | \   \       
                 \___/    |_|  |_| |__|  |__|  |_| \__\ |__|  \__/        
                                                                              
                      - O R C A' S   B I G   F R I E N D -                    
                                      &                                       
                       - I N T E G R A L  F E E D E R -                       
                                                                              
 v1 FN, 2020, v2 2021                                                         
------------------------------------------------------------------------------


Reading SHARK input file freq.SHARKINP.tmp ... ok
----------------------
SHARK INTEGRAL PACKAGE
----------------------

Number of atoms                             ...     21
Number of basis functions                   ...    376
Number of shells                            ...    154
Maximum angular momentum                    ...      3
Integral batch strategy                     ... SHARK/LIBINT Hybrid
RI-J (if used) integral strategy            ... SPLIT-RIJ (Revised 2003 algorithm where possible)
Printlevel                                  ...      1
Contraction scheme used                     ... SEGMENTED contraction
Coulomb Range Separation                    ... NOT USED
Exchange Range Separation                   ... NOT USED
Finite Nucleus Model                        ... NOT USED
Auxiliary Coulomb fitting basis             ... AVAILABLE
   # of basis functions in Aux-J            ...    611
   # of shells in Aux-J                     ...    205
   Maximum angular momentum in Aux-J        ...      4
Auxiliary J/K fitting basis                 ... NOT available
Auxiliary Correlation fitting basis         ... NOT available
Auxiliary 'external' fitting basis          ... NOT available
Integral threshold                          ...     2.500000e-11
Primitive cut-off                           ...     2.500000e-12
Primitive pair pre-selection threshold      ...     2.500000e-12

Calculating pre-screening integrals         ... done (  0.0 sec) Dimension = 154
Organizing shell pair data                  ... done (  0.1 sec)
Shell pair information
Total number of shell pairs                 ...     11935
Shell pairs after pre-screening             ...     10535
Total number of primitive shell pairs       ...     35764
Primitive shell pairs kept                  ...     23216
          la=0 lb=0:   2943 shell pairs
          la=1 lb=0:   3011 shell pairs
          la=1 lb=1:    787 shell pairs
          la=2 lb=0:   1492 shell pairs
          la=2 lb=1:    761 shell pairs
          la=2 lb=2:    199 shell pairs
          la=3 lb=0:    721 shell pairs
          la=3 lb=1:    380 shell pairs
          la=3 lb=2:    189 shell pairs
          la=3 lb=3:     52 shell pairs

Calculating one electron integrals          ... done (  0.0 sec)
Calculating RI/J V-Matrix + Cholesky decomp.... done (  0.1 sec)
Calculating Nuclear repulsion               ... done (  0.0 sec) ENN=    526.032636281795 Eh

SHARK setup successfully completed in   0.6 seconds

Maximum memory used throughout the entire GTOINT-calculation: 23.5 MB


           ************************************************************
           *        Program running with 16 parallel MPI-processes    *
           *              working on a common directory               *
           ************************************************************
-------------------------------------------------------------------------------
                                 ORCA SCF
-------------------------------------------------------------------------------

------------
SCF SETTINGS
------------
Hamiltonian:
 Density Functional     Method          .... DFT(GTOs)
 Exchange Functional    Exchange        .... M062X
 Correlation Functional Correlation     .... M062X
 Gradients option       PostSCFGGA      .... off
 Hybrid DFT is turned on
   Fraction HF Exchange ScalHFX         ....  0.540000
   Scaling of DF-GGA-X  ScalDFX         ....  0.460000
   Scaling of DF-GGA-C  ScalDFC         ....  1.000000
   Scaling of DF-LDA-C  ScalLDAC        ....  1.000000
   Perturbative correction              ....  0.000000
   Density functional embedding theory  .... OFF
 RI-approximation to the Coulomb term is turned on
   Number of AuxJ basis functions       .... 611
   RIJ-COSX (HFX calculated with COS-X)).... on


General Settings:
 Integral files         IntName         .... freq
 Hartree-Fock type      HFTyp           .... RHF
 Total Charge           Charge          ....    0
 Multiplicity           Mult            ....    1
 Number of Electrons    NEL             ....   74
 Basis Dimension        Dim             ....  376
 Nuclear Repulsion      ENuc            ....    526.0326362818 Eh

Convergence Acceleration:
 DIIS                   CNVDIIS         .... on
   Start iteration      DIISMaxIt       ....    12
   Startup error        DIISStart       ....  0.200000
   # of expansion vecs  DIISMaxEq       ....     5
   Bias factor          DIISBfac        ....   1.050
   Max. coefficient     DIISMaxC        ....  10.000
 Trust-Rad. Augm. Hess. CNVTRAH         .... auto
   Auto Start mean grad. ratio tolernc. ....  1.125000
   Auto Start start iteration           ....    20
   Auto Start num. interpolation iter.  ....    10
   Max. Number of Micro iterations      ....    16
   Max. Number of Macro iterations      .... Maxiter - #DIIS iter
   Number of Davidson start vectors     ....     2
   Converg. threshold I  (grad. norm)   ....   1.000e-05
   Converg. threshold II (energy diff.) ....   1.000e-08
   Grad. Scal. Fac. for Micro threshold ....   0.100
   Minimum threshold for Micro iter.    ....   0.010
   NR start threshold (gradient norm)   ....   0.001
   Initial trust radius                 ....   0.400
   Minimum AH scaling param. (alpha)    ....   1.000
   Maximum AH scaling param. (alpha)    .... 1000.000
   Orbital update algorithm             .... Taylor
   White noise on init. David. guess    .... on
   Maximum white noise                  ....   0.010
   Quad. conv. algorithm                .... NR
 SOSCF                  CNVSOSCF        .... on
   Start iteration      SOSCFMaxIt      ....   150
   Startup grad/error   SOSCFStart      ....  0.003300
 Level Shifting         CNVShift        .... on
   Level shift para.    LevelShift      ....    0.2500
   Turn off err/grad.   ShiftErr        ....    0.0010
 Zerner damping         CNVZerner       .... off
 Static damping         CNVDamp         .... on
   Fraction old density DampFac         ....    0.7000
   Max. Damping (<1)    DampMax         ....    0.9800
   Min. Damping (>=0)   DampMin         ....    0.0000
   Turn off err/grad.   DampErr         ....    0.1000
 Fernandez-Rico         CNVRico         .... off

SCF Procedure:
 Maximum # iterations   MaxIter         ....   125
 SCF integral mode      SCFMode         .... Direct
   Integral package                     .... SHARK and LIBINT hybrid scheme
 Reset frequency        DirectResetFreq ....    20
 Integral Threshold     Thresh          ....  2.500e-11 Eh
 Primitive CutOff       TCut            ....  2.500e-12 Eh

Convergence Tolerance:
 Convergence Check Mode ConvCheckMode   .... Total+1el-Energy
 Convergence forced     ConvForced      .... 0
 Energy Change          TolE            ....  1.000e-08 Eh
 1-El. energy change                    ....  1.000e-05 Eh
 Orbital Gradient       TolG            ....  1.000e-05
 Orbital Rotation angle TolX            ....  1.000e-05
 DIIS Error             TolErr          ....  5.000e-07


Diagonalization of the overlap matrix:
Smallest eigenvalue                        ... 3.242e-05
Time for diagonalization                   ...    0.027 sec
Threshold for overlap eigenvalues          ... 1.000e-08
Number of eigenvalues below threshold      ... 0
Time for construction of square roots      ...    0.037 sec
Total time needed                          ...    0.065 sec

Time for model grid setup =    0.149 sec

------------------------------
INITIAL GUESS: MODEL POTENTIAL
------------------------------
Loading Hartree-Fock densities                     ... done
Calculating cut-offs                               ... done
Initializing the effective Hamiltonian             ... done
Setting up the integral package (SHARK)            ... done
Starting the Coulomb interaction                   ... done (   0.1 sec)
Reading the grid                                   ... done
Mapping shells                                     ... done
Starting the XC term evaluation                    ... done (   0.1 sec)
  promolecular density results
     # of electrons  =     73.990194922
     EX              =    -58.917905353
     EC              =     -2.464075622
     EX+EC           =    -61.381980975
Transforming the Hamiltonian                       ... done (   0.0 sec)
Diagonalizing the Hamiltonian                      ... done (   0.0 sec)
Back transforming the eigenvectors                 ... done (   0.0 sec)
Now organizing SCF variables                       ... done
                      ------------------
                      INITIAL GUESS DONE (   0.6 sec)
                      ------------------
-------------------
DFT GRID GENERATION
-------------------

General Integration Accuracy     IntAcc      ... 4.388
Radial Grid Type                 RadialGrid  ... OptM3 with GC (2021)
Angular Grid (max. ang.)         AngularGrid ... 4 (Lebedev-302)
Angular grid pruning method      GridPruning ... 4 (adaptive)
Weight generation scheme         WeightScheme... Becke
Basis function cutoff            BFCut       ... 1.0000e-11
Integration weight cutoff        WCut        ... 1.0000e-14
Angular grids for H and He will be reduced by one unit
Partially contracted basis set               ... off
Rotationally invariant grid construction     ... off

Total number of grid points                  ...    95274
Total number of batches                      ...     1498
Average number of points per batch           ...       63
Average number of grid points per atom       ...     4537
Time for grid setup =    0.486 sec

--------------------
COSX GRID GENERATION
--------------------

GRIDX 1
-------
General Integration Accuracy     IntAcc      ... 3.816
Radial Grid Type                 RadialGrid  ... OptM3 with GC (2021)
Angular Grid (max. ang.)         AngularGrid ... 1 (Lebedev-50)
Angular grid pruning method      GridPruning ... 4 (adaptive)
Weight generation scheme         WeightScheme... Becke
Basis function cutoff            BFCut       ... 1.0000e-11
Integration weight cutoff        WCut        ... 1.0000e-14
Angular grids for H and He will be reduced by one unit
Partially contracted basis set               ... on
Rotationally invariant grid construction     ... off

Total number of grid points                  ...    12233
Total number of batches                      ...      201
Average number of points per batch           ...       60
Average number of grid points per atom       ...      583
UseSFitting                                  ... on

GRIDX 2
-------
General Integration Accuracy     IntAcc      ... 4.020
Radial Grid Type                 RadialGrid  ... OptM3 with GC (2021)
Angular Grid (max. ang.)         AngularGrid ... 2 (Lebedev-110)
Angular grid pruning method      GridPruning ... 4 (adaptive)
Weight generation scheme         WeightScheme... Becke
Basis function cutoff            BFCut       ... 1.0000e-11
Integration weight cutoff        WCut        ... 1.0000e-14
Angular grids for H and He will be reduced by one unit
Partially contracted basis set               ... on
Rotationally invariant grid construction     ... off

Total number of grid points                  ...    26091
Total number of batches                      ...      417
Average number of points per batch           ...       62
Average number of grid points per atom       ...     1242
UseSFitting                                  ... on

GRIDX 3
-------
General Integration Accuracy     IntAcc      ... 4.338
Radial Grid Type                 RadialGrid  ... OptM3 with GC (2021)
Angular Grid (max. ang.)         AngularGrid ... 3 (Lebedev-194)
Angular grid pruning method      GridPruning ... 4 (adaptive)
Weight generation scheme         WeightScheme... Becke
Basis function cutoff            BFCut       ... 1.0000e-11
Integration weight cutoff        WCut        ... 1.0000e-14
Angular grids for H and He will be reduced by one unit
Partially contracted basis set               ... on
Rotationally invariant grid construction     ... off

Total number of grid points                  ...    57234
Total number of batches                      ...      904
Average number of points per batch           ...       63
Average number of grid points per atom       ...     2725
UseSFitting                                  ... on

Time for X-Grid setup             =    1.139 sec

--------------
SCF ITERATIONS
--------------
ITER       Energy         Delta-E        Max-DP      RMS-DP      [F,P]     Damp
               ***  Starting incremental Fock matrix formation  ***
  0   -441.0007147475   0.000000000000 0.13768821  0.00139242  0.2568007 0.7000
  1   -441.1424142351  -0.141699487610 0.12525129  0.00116719  0.1387354 0.7000
                               ***Turning on DIIS***
  2   -441.2093167322  -0.066902497119 0.16312022  0.00204999  0.0555776 0.0000
  3   -441.3083343041  -0.099017571827 0.13573530  0.00107789  0.0780537 0.0000
  4   -441.3312319166  -0.022897612485 0.02563899  0.00030384  0.0101829 0.0000
  5   -441.3321041860  -0.000872269405 0.01413726  0.00014323  0.0036386 0.0000
                      *** Initiating the SOSCF procedure ***
                           *** Shutting down DIIS ***
                      *** Re-Reading the Fockian *** 
                      *** Removing any level shift *** 
ITER      Energy       Delta-E        Grad      Rot      Max-DP    RMS-DP
  6   -441.33222981  -0.0001256232  0.001169  0.001169  0.004499  0.000062
               *** Restarting incremental Fock matrix formation ***
  7   -441.33220742   0.0000223909  0.000570  0.001595  0.004148  0.000053
  8   -441.33221723  -0.0000098122  0.000268  0.001423  0.001072  0.000029
  9   -441.33221948  -0.0000022541  0.000162  0.000463  0.000791  0.000015
 10   -441.33222011  -0.0000006250  0.000023  0.000085  0.000233  0.000004
 11   -441.33222012  -0.0000000097  0.000030  0.000061  0.000066  0.000002
 12   -441.33222016  -0.0000000382  0.000003  0.000018  0.000040  0.000000
 13   -441.33222016   0.0000000014  0.000004  0.000009  0.000025  0.000000
                  ***Gradient check signals convergence***
              ***Rediagonalizing the Fockian in SOSCF/NRSCF***

               *****************************************************
               *                     SUCCESS                       *
               *           SCF CONVERGED AFTER  14 CYCLES          *
               *****************************************************

Old exchange energy                            =    -32.546799889 Eh
New exchange energy                            =    -32.546771179 Eh
Exchange energy change after final integration =      0.000028710 Eh
Total energy after final integration           =   -441.332191447 Eh
Final COS-X integration done in                =     3.615 sec

----------------
TOTAL SCF ENERGY
----------------

Total Energy       :         -441.33219145 Eh          -12009.25947 eV

Components:
Nuclear Repulsion  :          526.03263628 Eh           14314.07575 eV
Electronic Energy  :         -967.36482773 Eh          -26323.33521 eV
One Electron Energy:        -1639.47017610 Eh          -44612.25153 eV
Two Electron Energy:          672.10534837 Eh           18288.91632 eV
Max COSX asymmetry :            0.00000857 Eh               0.00023 eV

Virial components:
Potential Energy   :         -880.65963175 Eh          -23963.96688 eV
Kinetic Energy     :          439.32744030 Eh           11954.70742 eV
Virial Ratio       :            2.00456323


DFT components:
N(Alpha)           :       36.999980152797 electrons
N(Beta)            :       36.999980152797 electrons
N(Total)           :       73.999960305595 electrons
E(XC)              :      -30.391312767871 Eh       
DFET-embed. en.    :        0.000000000000 Eh       

---------------
SCF CONVERGENCE
---------------

  Last Energy change         ...   -1.1631e-09  Tolerance :   1.0000e-08
  Last MAX-Density change    ...    1.2212e-15  Tolerance :   1.0000e-07
  Last RMS-Density change    ...    1.4273e-17  Tolerance :   5.0000e-09
  Last Orbital Gradient      ...    9.3647e-07  Tolerance :   1.0000e-05
  Last Orbital Rotation      ...    3.7046e-06  Tolerance :   1.0000e-05

             **** THE GBW FILE WAS UPDATED (freq.gbw) ****
             **** DENSITY freq.scfp WAS UPDATED ****
             **** ENERGY FILE WAS UPDATED (freq.en.tmp) ****
             **** THE GBW FILE WAS UPDATED (freq.gbw) ****
             **** DENSITY freq.scfp WAS UPDATED ****
----------------
ORBITAL ENERGIES
----------------

  NO   OCC          E(Eh)            E(eV) 
   0   2.0000     -19.637650      -534.3676 
   1   2.0000     -14.824040      -403.3826 
   2   2.0000     -10.603574      -288.5379 
   3   2.0000     -10.593932      -288.2755 
   4   2.0000     -10.586340      -288.0690 
   5   2.0000     -10.585536      -288.0471 
   6   2.0000     -10.544562      -286.9321 
   7   2.0000     -10.536520      -286.7133 
   8   2.0000     -10.523994      -286.3724 
   9   2.0000     -10.473805      -285.0067 
  10   2.0000      -1.172216       -31.8976 
  11   2.0000      -1.136135       -30.9158 
  12   2.0000      -0.938004       -25.5244 
  13   2.0000      -0.886581       -24.1251 
  14   2.0000      -0.843866       -22.9628 
  15   2.0000      -0.804172       -21.8826 
  16   2.0000      -0.749044       -20.3825 
  17   2.0000      -0.713281       -19.4094 
  18   2.0000      -0.665495       -18.1090 
  19   2.0000      -0.627902       -17.0861 
  20   2.0000      -0.604005       -16.4358 
  21   2.0000      -0.594804       -16.1854 
  22   2.0000      -0.573340       -15.6014 
  23   2.0000      -0.519549       -14.1377 
  24   2.0000      -0.514847       -14.0097 
  25   2.0000      -0.503215       -13.6932 
  26   2.0000      -0.497785       -13.5454 
  27   2.0000      -0.485460       -13.2100 
  28   2.0000      -0.459436       -12.5019 
  29   2.0000      -0.454175       -12.3587 
  30   2.0000      -0.442171       -12.0321 
  31   2.0000      -0.396464       -10.7883 
  32   2.0000      -0.382926       -10.4199 
  33   2.0000      -0.368276       -10.0213 
  34   2.0000      -0.347812        -9.4645 
  35   2.0000      -0.315674        -8.5899 
  36   2.0000      -0.195813        -5.3284 
  37   0.0000       0.009410         0.2560 
  38   0.0000       0.015162         0.4126 
  39   0.0000       0.052356         1.4247 
  40   0.0000       0.071910         1.9568 
  41   0.0000       0.084491         2.2991 
  42   0.0000       0.093217         2.5366 
  43   0.0000       0.102828         2.7981 
  44   0.0000       0.111197         3.0258 
  45   0.0000       0.132896         3.6163 
  46   0.0000       0.143253         3.8981 
  47   0.0000       0.148963         4.0535 
  48   0.0000       0.164716         4.4822 
  49   0.0000       0.168022         4.5721 
  50   0.0000       0.170626         4.6430 
  51   0.0000       0.181282         4.9329 
  52   0.0000       0.195918         5.3312 
  53   0.0000       0.209275         5.6947 
  54   0.0000       0.218540         5.9468 
  55   0.0000       0.235093         6.3972 
  56   0.0000       0.240975         6.5573 
  57   0.0000       0.244412         6.6508 
  58   0.0000       0.261270         7.1095 
  59   0.0000       0.265123         7.2144 
  60   0.0000       0.271192         7.3795 
  61   0.0000       0.285762         7.7760 
  62   0.0000       0.289260         7.8712 
  63   0.0000       0.302202         8.2233 
  64   0.0000       0.305075         8.3015 
  65   0.0000       0.324572         8.8320 
  66   0.0000       0.333389         9.0720 
  67   0.0000       0.350338         9.5332 
  68   0.0000       0.353790         9.6271 
  69   0.0000       0.356561         9.7025 
  70   0.0000       0.371748        10.1158 
  71   0.0000       0.374722        10.1967 
  72   0.0000       0.381815        10.3897 
  73   0.0000       0.390796        10.6341 
  74   0.0000       0.397088        10.8053 
  75   0.0000       0.409851        11.1526 
  76   0.0000       0.426980        11.6187 
  77   0.0000       0.429846        11.6967 
  78   0.0000       0.436080        11.8663 
  79   0.0000       0.448595        12.2069 
  80   0.0000       0.461218        12.5504 
  81   0.0000       0.464860        12.6495 
  82   0.0000       0.473918        12.8960 
  83   0.0000       0.482236        13.1223 
  84   0.0000       0.489912        13.3312 
  85   0.0000       0.492799        13.4097 
  86   0.0000       0.497431        13.5358 
  87   0.0000       0.515391        14.0245 
  88   0.0000       0.522296        14.2124 
  89   0.0000       0.527798        14.3621 
  90   0.0000       0.537305        14.6208 
  91   0.0000       0.549750        14.9595 
  92   0.0000       0.563232        15.3263 
  93   0.0000       0.571137        15.5414 
  94   0.0000       0.575171        15.6512 
  95   0.0000       0.593727        16.1561 
  96   0.0000       0.599019        16.3001 
  97   0.0000       0.612965        16.6796 
  98   0.0000       0.628305        17.0970 
  99   0.0000       0.633272        17.2322 
 100   0.0000       0.641170        17.4471 
 101   0.0000       0.663205        18.0467 
 102   0.0000       0.668307        18.1856 
 103   0.0000       0.681169        18.5356 
 104   0.0000       0.698859        19.0169 
 105   0.0000       0.714052        19.4303 
 106   0.0000       0.723345        19.6832 
 107   0.0000       0.732457        19.9312 
 108   0.0000       0.739115        20.1123 
 109   0.0000       0.756488        20.5851 
 110   0.0000       0.773820        21.0567 
 111   0.0000       0.779707        21.2169 
 112   0.0000       0.814553        22.1651 
 113   0.0000       0.823377        22.4052 
 114   0.0000       0.844922        22.9915 
 115   0.0000       0.860143        23.4057 
 116   0.0000       0.873052        23.7569 
 117   0.0000       0.884122        24.0582 
 118   0.0000       0.893853        24.3230 
 119   0.0000       0.908846        24.7310 
 120   0.0000       0.929198        25.2848 
 121   0.0000       0.934238        25.4219 
 122   0.0000       0.957666        26.0594 
 123   0.0000       0.982107        26.7245 
 124   0.0000       1.000191        27.2166 
 125   0.0000       1.017985        27.7008 
 126   0.0000       1.027966        27.9724 
 127   0.0000       1.041821        28.3494 
 128   0.0000       1.047986        28.5171 
 129   0.0000       1.076685        29.2981 
 130   0.0000       1.100260        29.9396 
 131   0.0000       1.103054        30.0156 
 132   0.0000       1.124847        30.6086 
 133   0.0000       1.129358        30.7314 
 134   0.0000       1.151678        31.3388 
 135   0.0000       1.171745        31.8848 
 136   0.0000       1.201771        32.7019 
 137   0.0000       1.209122        32.9019 
 138   0.0000       1.223315        33.2881 
 139   0.0000       1.247563        33.9479 
 140   0.0000       1.263070        34.3699 
 141   0.0000       1.271284        34.5934 
 142   0.0000       1.295478        35.2517 
 143   0.0000       1.331924        36.2435 
 144   0.0000       1.347887        36.6779 
 145   0.0000       1.390812        37.8459 
 146   0.0000       1.403895        38.2019 
 147   0.0000       1.417863        38.5820 
 148   0.0000       1.435401        39.0592 
 149   0.0000       1.442046        39.2401 
 150   0.0000       1.456695        39.6387 
 151   0.0000       1.477106        40.1941 
 152   0.0000       1.481388        40.3106 
 153   0.0000       1.495027        40.6818 
 154   0.0000       1.509412        41.0732 
 155   0.0000       1.528037        41.5800 
 156   0.0000       1.537330        41.8329 
 157   0.0000       1.552939        42.2576 
 158   0.0000       1.562821        42.5265 
 159   0.0000       1.586974        43.1838 
 160   0.0000       1.595072        43.4041 
 161   0.0000       1.599279        43.5186 
 162   0.0000       1.620883        44.1065 
 163   0.0000       1.630214        44.3604 
 164   0.0000       1.650273        44.9062 
 165   0.0000       1.653339        44.9897 
 166   0.0000       1.673503        45.5383 
 167   0.0000       1.677200        45.6389 
 168   0.0000       1.691250        46.0213 
 169   0.0000       1.695987        46.1501 
 170   0.0000       1.715966        46.6938 
 171   0.0000       1.750925        47.6451 
 172   0.0000       1.753924        47.7267 
 173   0.0000       1.760844        47.9150 
 174   0.0000       1.778704        48.4010 
 175   0.0000       1.799412        48.9645 
 176   0.0000       1.812739        49.3271 
 177   0.0000       1.824263        49.6407 
 178   0.0000       1.829612        49.7863 
 179   0.0000       1.868995        50.8579 
 180   0.0000       1.880038        51.1584 
 181   0.0000       1.911081        52.0032 
 182   0.0000       1.922331        52.3093 
 183   0.0000       1.942366        52.8545 
 184   0.0000       1.965026        53.4711 
 185   0.0000       1.987046        54.0703 
 186   0.0000       2.002555        54.4923 
 187   0.0000       2.016480        54.8712 
 188   0.0000       2.054993        55.9192 
 189   0.0000       2.065029        56.1923 
 190   0.0000       2.069110        56.3034 
 191   0.0000       2.073833        56.4319 
 192   0.0000       2.102261        57.2054 
 193   0.0000       2.115378        57.5624 
 194   0.0000       2.141914        58.2845 
 195   0.0000       2.164547        58.9003 
 196   0.0000       2.172218        59.1091 
 197   0.0000       2.182424        59.3868 
 198   0.0000       2.199950        59.8637 
 199   0.0000       2.227833        60.6224 
 200   0.0000       2.235111        60.8205 
 201   0.0000       2.273734        61.8714 
 202   0.0000       2.287611        62.2491 
 203   0.0000       2.292588        62.3845 
 204   0.0000       2.305275        62.7297 
 205   0.0000       2.312311        62.9212 
 206   0.0000       2.330788        63.4240 
 207   0.0000       2.333999        63.5113 
 208   0.0000       2.352056        64.0027 
 209   0.0000       2.370288        64.4988 
 210   0.0000       2.373558        64.5878 
 211   0.0000       2.404048        65.4175 
 212   0.0000       2.426722        66.0345 
 213   0.0000       2.461006        66.9674 
 214   0.0000       2.465375        67.0863 
 215   0.0000       2.484479        67.6061 
 216   0.0000       2.505739        68.1846 
 217   0.0000       2.509968        68.2997 
 218   0.0000       2.522209        68.6328 
 219   0.0000       2.540273        69.1244 
 220   0.0000       2.562657        69.7334 
 221   0.0000       2.564154        69.7742 
 222   0.0000       2.585985        70.3682 
 223   0.0000       2.592933        70.5573 
 224   0.0000       2.615586        71.1737 
 225   0.0000       2.641517        71.8793 
 226   0.0000       2.653125        72.1952 
 227   0.0000       2.665281        72.5260 
 228   0.0000       2.690168        73.2032 
 229   0.0000       2.706709        73.6533 
 230   0.0000       2.720800        74.0367 
 231   0.0000       2.731054        74.3157 
 232   0.0000       2.747389        74.7603 
 233   0.0000       2.750985        74.8581 
 234   0.0000       2.783869        75.7529 
 235   0.0000       2.799202        76.1702 
 236   0.0000       2.808767        76.4304 
 237   0.0000       2.833507        77.1037 
 238   0.0000       2.858838        77.7929 
 239   0.0000       2.892756        78.7159 
 240   0.0000       2.910352        79.1947 
 241   0.0000       2.919920        79.4551 
 242   0.0000       2.934098        79.8409 
 243   0.0000       2.939398        79.9851 
 244   0.0000       2.956648        80.4545 
 245   0.0000       2.958436        80.5031 
 246   0.0000       2.984379        81.2091 
 247   0.0000       2.996410        81.5365 
 248   0.0000       3.009704        81.8982 
 249   0.0000       3.030468        82.4632 
 250   0.0000       3.039898        82.7198 
 251   0.0000       3.044882        82.8555 
 252   0.0000       3.064390        83.3863 
 253   0.0000       3.081146        83.8422 
 254   0.0000       3.092493        84.1510 
 255   0.0000       3.100665        84.3734 
 256   0.0000       3.119966        84.8986 
 257   0.0000       3.131134        85.2025 
 258   0.0000       3.138661        85.4073 
 259   0.0000       3.153799        85.8192 
 260   0.0000       3.161147        86.0192 
 261   0.0000       3.174746        86.3892 
 262   0.0000       3.197418        87.0062 
 263   0.0000       3.217898        87.5635 
 264   0.0000       3.227803        87.8330 
 265   0.0000       3.232907        87.9719 
 266   0.0000       3.254198        88.5512 
 267   0.0000       3.263827        88.8133 
 268   0.0000       3.277028        89.1725 
 269   0.0000       3.290569        89.5409 
 270   0.0000       3.302180        89.8569 
 271   0.0000       3.321191        90.3742 
 272   0.0000       3.328925        90.5847 
 273   0.0000       3.342988        90.9673 
 274   0.0000       3.355987        91.3211 
 275   0.0000       3.358778        91.3970 
 276   0.0000       3.383791        92.0776 
 277   0.0000       3.386172        92.1424 
 278   0.0000       3.400558        92.5339 
 279   0.0000       3.418226        93.0147 
 280   0.0000       3.426464        93.2388 
 281   0.0000       3.441207        93.6400 
 282   0.0000       3.462635        94.2231 
 283   0.0000       3.484503        94.8181 
 284   0.0000       3.486584        94.8748 
 285   0.0000       3.501817        95.2893 
 286   0.0000       3.519905        95.7815 
 287   0.0000       3.534591        96.1811 
 288   0.0000       3.543196        96.4153 
 289   0.0000       3.569914        97.1423 
 290   0.0000       3.596667        97.8703 
 291   0.0000       3.605685        98.1157 
 292   0.0000       3.617915        98.4485 
 293   0.0000       3.657755        99.5326 
 294   0.0000       3.688791       100.3771 
 295   0.0000       3.695308       100.5544 
 296   0.0000       3.725217       101.3683 
 297   0.0000       3.748706       102.0075 
 298   0.0000       3.763556       102.4116 
 299   0.0000       3.781196       102.8916 
 300   0.0000       3.803326       103.4938 
 301   0.0000       3.832526       104.2883 
 302   0.0000       3.854205       104.8782 
 303   0.0000       3.883832       105.6844 
 304   0.0000       3.904356       106.2429 
 305   0.0000       3.930785       106.9621 
 306   0.0000       3.978540       108.2616 
 307   0.0000       3.987956       108.5178 
 308   0.0000       4.002615       108.9167 
 309   0.0000       4.077945       110.9665 
 310   0.0000       4.086205       111.1913 
 311   0.0000       4.098199       111.5177 
 312   0.0000       4.122049       112.1667 
 313   0.0000       4.161843       113.2495 
 314   0.0000       4.180108       113.7465 
 315   0.0000       4.188651       113.9790 
 316   0.0000       4.209707       114.5520 
 317   0.0000       4.225103       114.9709 
 318   0.0000       4.259002       115.8933 
 319   0.0000       4.261317       115.9563 
 320   0.0000       4.302296       117.0714 
 321   0.0000       4.323062       117.6365 
 322   0.0000       4.358762       118.6080 
 323   0.0000       4.393427       119.5512 
 324   0.0000       4.435302       120.6907 
 325   0.0000       4.451510       121.1317 
 326   0.0000       4.493373       122.2709 
 327   0.0000       4.504054       122.5615 
 328   0.0000       4.549156       123.7888 
 329   0.0000       4.566560       124.2624 
 330   0.0000       4.605344       125.3178 
 331   0.0000       4.636665       126.1701 
 332   0.0000       4.655473       126.6819 
 333   0.0000       4.682305       127.4120 
 334   0.0000       4.779102       130.0460 
 335   0.0000       4.854855       132.1073 
 336   0.0000       4.890008       133.0639 
 337   0.0000       4.950186       134.7014 
 338   0.0000       4.964024       135.0780 
 339   0.0000       5.013361       136.4205 
 340   0.0000       5.036764       137.0573 
 341   0.0000       5.061560       137.7320 
 342   0.0000       5.134421       139.7147 
 343   0.0000       5.178557       140.9157 
 344   0.0000       5.215817       141.9296 
 345   0.0000       5.250705       142.8789 
 346   0.0000       5.266161       143.2995 
 347   0.0000       5.305913       144.3812 
 348   0.0000       5.397311       146.8683 
 349   0.0000       5.421038       147.5140 
 350   0.0000       5.452696       148.3754 
 351   0.0000       5.508111       149.8833 
 352   0.0000       5.545282       150.8948 
 353   0.0000       5.771913       157.0617 
 354   0.0000       5.809398       158.0818 
 355   0.0000       5.893727       160.3765 
 356   0.0000       5.920087       161.0937 
 357   0.0000       5.957730       162.1181 
 358   0.0000       6.102979       166.0705 
 359   0.0000       6.378401       173.5651 
 360   0.0000       6.416958       174.6143 
 361   0.0000       6.436589       175.1485 
 362   0.0000       6.699833       182.3117 
 363   0.0000       6.967522       189.5959 
 364   0.0000       6.986029       190.0995 
 365   0.0000       7.163560       194.9304 
 366   0.0000      22.337592       607.8368 
 367   0.0000      22.491911       612.0360 
 368   0.0000      22.561893       613.9403 
 369   0.0000      22.617512       615.4538 
 370   0.0000      23.019911       626.4036 
 371   0.0000      23.092242       628.3719 
 372   0.0000      23.216963       631.7657 
 373   0.0000      23.602210       642.2488 
 374   0.0000      33.026785       898.7045 
 375   0.0000      44.164069      1201.7654 

                    ********************************
                    * MULLIKEN POPULATION ANALYSIS *
                    ********************************

-----------------------
MULLIKEN ATOMIC CHARGES
-----------------------
   0 N :   -0.045710
   1 C :   -0.320640
   2 C :   -0.050978
   3 C :    0.063987
   4 O :   -0.484921
   5 H :    0.343775
   6 C :    0.069869
   7 C :   -0.495790
   8 C :   -0.009833
   9 C :   -0.473617
  10 C :   -0.050726
  11 H :    0.170971
  12 H :    0.154391
  13 H :    0.153629
  14 H :    0.162089
  15 H :    0.080470
  16 H :    0.129275
  17 H :    0.165134
  18 H :    0.127410
  19 H :    0.148133
  20 H :    0.163080
Sum of atomic charges:    0.0000000

--------------------------------
MULLIKEN REDUCED ORBITAL CHARGES
--------------------------------
  0 N s       :     3.422513  s :     3.422513
      pz      :     1.437820  p :     3.539961
      px      :     1.035940
      py      :     1.066200
      dz2     :     0.004723  d :     0.077770
      dxz     :     0.014033
      dyz     :     0.021280
      dx2y2   :     0.021542
      dxy     :     0.016192
      f0      :     0.001090  f :     0.005466
      f+1     :     0.000757
      f-1     :     0.000687
      f+2     :     0.000380
      f-2     :     0.000584
      f+3     :     0.000557
      f-3     :     0.001409
  1 C s       :     3.309926  s :     3.309926
      pz      :     1.099952  p :     2.934668
      px      :     0.746697
      py      :     1.088019
      dz2     :     0.006806  d :     0.071128
      dxz     :     0.031319
      dyz     :     0.006375
      dx2y2   :     0.013152
      dxy     :     0.013477
      f0      :     0.001099  f :     0.004918
      f+1     :     0.000538
      f-1     :     0.000057
      f+2     :     0.001382
      f-2     :     0.000126
      f+3     :     0.000837
      f-3     :     0.000879
  2 C s       :     3.082930  s :     3.082930
      pz      :     1.024603  p :     2.869158
      px      :     0.981900
      py      :     0.862655
      dz2     :     0.004614  d :     0.088733
      dxz     :     0.026547
      dyz     :     0.019513
      dx2y2   :     0.016257
      dxy     :     0.021802
      f0      :     0.001922  f :     0.010157
      f+1     :     0.000922
      f-1     :     0.001190
      f+2     :     0.001123
      f-2     :     0.001138
      f+3     :     0.001183
      f-3     :     0.002681
  3 C s       :     3.073608  s :     3.073608
      pz      :     0.994477  p :     2.694217
      px      :     0.933058
      py      :     0.766683
      dz2     :     0.005885  d :     0.153839
      dxz     :     0.033305
      dyz     :     0.035449
      dx2y2   :     0.040221
      dxy     :     0.038980
      f0      :     0.002121  f :     0.014348
      f+1     :     0.001012
      f-1     :     0.001222
      f+2     :     0.001186
      f-2     :     0.001533
      f+3     :     0.001285
      f-3     :     0.005990
  4 O s       :     3.796921  s :     3.796921
      pz      :     1.462107  p :     4.656952
      px      :     1.755979
      py      :     1.438866
      dz2     :     0.008807  d :     0.029135
      dxz     :     0.003314
      dyz     :     0.006031
      dx2y2   :     0.004882
      dxy     :     0.006100
      f0      :     0.000201  f :     0.001913
      f+1     :     0.000129
      f-1     :     0.000346
      f+2     :     0.000113
      f-2     :     0.000255
      f+3     :     0.000553
      f-3     :     0.000317
  5 H s       :     0.608899  s :     0.608899
      pz      :     0.018648  p :     0.047326
      px      :     0.015658
      py      :     0.013020
  6 C s       :     3.152937  s :     3.152937
      pz      :     0.893494  p :     2.664233
      px      :     0.905607
      py      :     0.865131
      dz2     :     0.003913  d :     0.104552
      dxz     :     0.044120
      dyz     :     0.014733
      dx2y2   :     0.003617
      dxy     :     0.038170
      f0      :     0.001449  f :     0.008409
      f+1     :     0.000824
      f-1     :     0.000768
      f+2     :     0.000645
      f-2     :     0.000776
      f+3     :     0.001097
      f-3     :     0.002851
  7 C s       :     3.362341  s :     3.362341
      pz      :     1.228146  p :     3.090325
      px      :     0.880485
      py      :     0.981694
      dz2     :     0.002354  d :     0.040018
      dxz     :     0.013893
      dyz     :     0.008140
      dx2y2   :     0.007934
      dxy     :     0.007698
      f0      :     0.000725  f :     0.003106
      f+1     :     0.000414
      f-1     :     0.000029
      f+2     :     0.000482
      f-2     :     0.000285
      f+3     :     0.000579
      f-3     :     0.000591
  8 C s       :     3.169566  s :     3.169566
      pz      :     0.950151  p :     2.730926
      px      :     0.896264
      py      :     0.884512
      dz2     :     0.004748  d :     0.100657
      dxz     :     0.027484
      dyz     :     0.022844
      dx2y2   :     0.023527
      dxy     :     0.022055
      f0      :     0.001560  f :     0.008683
      f+1     :     0.000779
      f-1     :     0.000889
      f+2     :     0.000846
      f-2     :     0.000790
      f+3     :     0.000974
      f-3     :     0.002845
  9 C s       :     3.390463  s :     3.390463
      pz      :     1.078975  p :     3.031736
      px      :     1.020578
      py      :     0.932183
      dz2     :     0.005622  d :     0.048316
      dxz     :     0.009526
      dyz     :     0.013461
      dx2y2   :     0.009532
      dxy     :     0.010175
      f0      :     0.000645  f :     0.003102
      f+1     :     0.000131
      f-1     :     0.000313
      f+2     :     0.000232
      f-2     :     0.000538
      f+3     :     0.000676
      f-3     :     0.000568
 10 C s       :     3.075835  s :     3.075835
      pz      :     1.013582  p :     2.870987
      px      :     0.983279
      py      :     0.874126
      dz2     :     0.004365  d :     0.093859
      dxz     :     0.027778
      dyz     :     0.019386
      dx2y2   :     0.014374
      dxy     :     0.027956
      f0      :     0.001884  f :     0.010044
      f+1     :     0.000885
      f-1     :     0.001157
      f+2     :     0.001045
      f-2     :     0.001196
      f+3     :     0.001147
      f-3     :     0.002731
 11 H s       :     0.809836  s :     0.809836
      pz      :     0.011523  p :     0.019193
      px      :     0.004023
      py      :     0.003646
 12 H s       :     0.826225  s :     0.826225
      pz      :     0.005693  p :     0.019385
      px      :     0.004159
      py      :     0.009532
 13 H s       :     0.826991  s :     0.826991
      pz      :     0.005580  p :     0.019380
      px      :     0.004286
      py      :     0.009513
 14 H s       :     0.817210  s :     0.817210
      pz      :     0.004289  p :     0.020701
      px      :     0.005190
      py      :     0.011222
 15 H s       :     0.897702  s :     0.897702
      pz      :     0.007535  p :     0.021828
      px      :     0.005690
      py      :     0.008603
 16 H s       :     0.849654  s :     0.849654
      pz      :     0.007256  p :     0.021071
      px      :     0.005051
      py      :     0.008763
 17 H s       :     0.815489  s :     0.815489
      pz      :     0.010926  p :     0.019377
      px      :     0.004094
      py      :     0.004357
 18 H s       :     0.853543  s :     0.853543
      pz      :     0.005312  p :     0.019047
      px      :     0.005765
      py      :     0.007971
 19 H s       :     0.831085  s :     0.831085
      pz      :     0.005605  p :     0.020782
      px      :     0.011002
      py      :     0.004175
 20 H s       :     0.816294  s :     0.816294
      pz      :     0.004206  p :     0.020627
      px      :     0.005148
      py      :     0.011273


                     *******************************
                     * LOEWDIN POPULATION ANALYSIS *
                     *******************************

----------------------
LOEWDIN ATOMIC CHARGES
----------------------
   0 N :    0.223502
   1 C :   -0.240490
   2 C :   -0.166183
   3 C :   -0.271018
   4 O :    0.067981
   5 H :    0.196858
   6 C :   -0.153411
   7 C :   -0.377828
   8 C :   -0.156456
   9 C :   -0.246717
  10 C :   -0.164233
  11 H :    0.123711
  12 H :    0.126461
  13 H :    0.126130
  14 H :    0.150970
  15 H :    0.104962
  16 H :    0.112016
  17 H :    0.135893
  18 H :    0.124573
  19 H :    0.132600
  20 H :    0.150677

-------------------------------
LOEWDIN REDUCED ORBITAL CHARGES
-------------------------------
  0 N s       :     2.832623  s :     2.832623
      pz      :     1.244067  p :     3.561253
      px      :     1.121432
      py      :     1.195754
      dz2     :     0.018508  d :     0.357027
      dxz     :     0.041902
      dyz     :     0.072205
      dx2y2   :     0.124472
      dxy     :     0.099941
      f0      :     0.002281  f :     0.025595
      f+1     :     0.001699
      f-1     :     0.002214
      f+2     :     0.002215
      f-2     :     0.004204
      f+3     :     0.002779
      f-3     :     0.010203
  1 C s       :     2.835044  s :     2.835044
      pz      :     1.103337  p :     3.063323
      px      :     0.862093
      py      :     1.097893
      dz2     :     0.042261  d :     0.304390
      dxz     :     0.099394
      dyz     :     0.028651
      dx2y2   :     0.068733
      dxy     :     0.065351
      f0      :     0.006032  f :     0.037733
      f+1     :     0.005177
      f-1     :     0.000556
      f+2     :     0.008166
      f-2     :     0.002547
      f+3     :     0.007374
      f-3     :     0.007881
  2 C s       :     2.751489  s :     2.751489
      pz      :     0.936101  p :     2.882200
      px      :     1.023065
      py      :     0.923035
      dz2     :     0.033575  d :     0.467514
      dxz     :     0.084165
      dyz     :     0.063549
      dx2y2   :     0.125664
      dxy     :     0.160562
      f0      :     0.005206  f :     0.064980
      f+1     :     0.004871
      f-1     :     0.005596
      f+2     :     0.010166
      f-2     :     0.007679
      f+3     :     0.011073
      f-3     :     0.020389
  3 C s       :     2.704092  s :     2.704092
      pz      :     0.886761  p :     2.785478
      px      :     1.007232
      py      :     0.891485
      dz2     :     0.045979  d :     0.684576
      dxz     :     0.094175
      dyz     :     0.097445
      dx2y2   :     0.235947
      dxy     :     0.211030
      f0      :     0.006795  f :     0.096873
      f+1     :     0.005833
      f-1     :     0.008013
      f+2     :     0.009405
      f-2     :     0.011186
      f+3     :     0.016306
      f-3     :     0.039335
  4 O s       :     3.310615  s :     3.310615
      pz      :     1.440416  p :     4.545608
      px      :     1.657790
      py      :     1.447402
      dz2     :     0.015700  d :     0.071005
      dxz     :     0.007045
      dyz     :     0.018492
      dx2y2   :     0.014693
      dxy     :     0.015075
      f0      :     0.000893  f :     0.004791
      f+1     :     0.000264
      f-1     :     0.000780
      f+2     :     0.000200
      f-2     :     0.000552
      f+3     :     0.001022
      f-3     :     0.001080
  5 H s       :     0.647739  s :     0.647739
      pz      :     0.077378  p :     0.155402
      px      :     0.042429
      py      :     0.035595
  6 C s       :     2.711946  s :     2.711946
      pz      :     0.802352  p :     2.837172
      px      :     1.024059
      py      :     1.010761
      dz2     :     0.034594  d :     0.547482
      dxz     :     0.126118
      dyz     :     0.059103
      dx2y2   :     0.158967
      dxy     :     0.168699
      f0      :     0.003961  f :     0.056811
      f+1     :     0.003801
      f-1     :     0.004604
      f+2     :     0.006669
      f-2     :     0.006919
      f+3     :     0.008965
      f-3     :     0.021893
  7 C s       :     2.923151  s :     2.923151
      pz      :     1.181499  p :     3.250513
      px      :     1.022666
      py      :     1.046348
      dz2     :     0.010592  d :     0.183536
      dxz     :     0.026308
      dyz     :     0.032011
      dx2y2   :     0.056951
      dxy     :     0.057675
      f0      :     0.002468  f :     0.020627
      f+1     :     0.002311
      f-1     :     0.000395
      f+2     :     0.003301
      f-2     :     0.002573
      f+3     :     0.004026
      f-3     :     0.005553
  8 C s       :     2.702958  s :     2.702958
      pz      :     0.847567  p :     2.869272
      px      :     1.019753
      py      :     1.001952
      dz2     :     0.033304  d :     0.526133
      dxz     :     0.084113
      dyz     :     0.072816
      dx2y2   :     0.175049
      dxy     :     0.160852
      f0      :     0.004434  f :     0.058092
      f+1     :     0.004562
      f-1     :     0.004057
      f+2     :     0.006859
      f-2     :     0.006163
      f+3     :     0.009074
      f-3     :     0.022943
  9 C s       :     2.815043  s :     2.815043
      pz      :     1.074093  p :     3.158823
      px      :     1.059727
      py      :     1.025003
      dz2     :     0.035312  d :     0.247600
      dxz     :     0.042634
      dyz     :     0.053140
      dx2y2   :     0.058175
      dxy     :     0.058340
      f0      :     0.004094  f :     0.025250
      f+1     :     0.001077
      f-1     :     0.002688
      f+2     :     0.003039
      f-2     :     0.004308
      f+3     :     0.004371
      f-3     :     0.005673
 10 C s       :     2.743175  s :     2.743175
      pz      :     0.926406  p :     2.872026
      px      :     1.026570
      py      :     0.919050
      dz2     :     0.033054  d :     0.483494
      dxz     :     0.085187
      dyz     :     0.061617
      dx2y2   :     0.124375
      dxy     :     0.179261
      f0      :     0.005083  f :     0.065537
      f+1     :     0.004762
      f-1     :     0.005540
      f+2     :     0.009253
      f-2     :     0.008077
      f+3     :     0.010913
      f-3     :     0.021909
 11 H s       :     0.814613  s :     0.814613
      pz      :     0.035636  p :     0.061677
      px      :     0.012744
      py      :     0.013297
 12 H s       :     0.812740  s :     0.812740
      pz      :     0.019152  p :     0.060800
      px      :     0.011834
      py      :     0.029815
 13 H s       :     0.813051  s :     0.813051
      pz      :     0.018833  p :     0.060819
      px      :     0.012151
      py      :     0.029835
 14 H s       :     0.788671  s :     0.788671
      pz      :     0.014591  p :     0.060359
      px      :     0.016139
      py      :     0.029629
 15 H s       :     0.827032  s :     0.827032
      pz      :     0.024570  p :     0.068006
      px      :     0.015337
      py      :     0.028099
 16 H s       :     0.821065  s :     0.821065
      pz      :     0.024178  p :     0.066918
      px      :     0.014788
      py      :     0.027952
 17 H s       :     0.802995  s :     0.802995
      pz      :     0.033261  p :     0.061112
      px      :     0.013995
      py      :     0.013856
 18 H s       :     0.815590  s :     0.815590
      pz      :     0.017883  p :     0.059838
      px      :     0.019882
      py      :     0.022073
 19 H s       :     0.803658  s :     0.803658
      pz      :     0.018359  p :     0.063743
      px      :     0.031875
      py      :     0.013509
 20 H s       :     0.789671  s :     0.789671
      pz      :     0.014456  p :     0.059652
      px      :     0.015626
      py      :     0.029570


                      *****************************
                      * MAYER POPULATION ANALYSIS *
                      *****************************

  NA   - Mulliken gross atomic population
  ZA   - Total nuclear charge
  QA   - Mulliken gross atomic charge
  VA   - Mayer's total valence
  BVA  - Mayer's bonded valence
  FA   - Mayer's free valence

  ATOM       NA         ZA         QA         VA         BVA        FA
  0 N      7.0457     7.0000    -0.0457     3.3562     3.3562     0.0000
  1 C      6.3206     6.0000    -0.3206     3.8119     3.8119     0.0000
  2 C      6.0510     6.0000    -0.0510     3.8522     3.8522     0.0000
  3 C      5.9360     6.0000     0.0640     4.1331     4.1331    -0.0000
  4 O      8.4849     8.0000    -0.4849     1.9541     1.9541     0.0000
  5 H      0.6562     1.0000     0.3438     0.8925     0.8925     0.0000
  6 C      5.9301     6.0000     0.0699     3.7502     3.7502    -0.0000
  7 C      6.4958     6.0000    -0.4958     3.7086     3.7086     0.0000
  8 C      6.0098     6.0000    -0.0098     3.8132     3.8132     0.0000
  9 C      6.4736     6.0000    -0.4736     3.8768     3.8768     0.0000
 10 C      6.0507     6.0000    -0.0507     3.8391     3.8391     0.0000
 11 H      0.8290     1.0000     0.1710     0.9413     0.9413     0.0000
 12 H      0.8456     1.0000     0.1544     0.9552     0.9552    -0.0000
 13 H      0.8464     1.0000     0.1536     0.9552     0.9552     0.0000
[...]
     14       0.000038   0.000032   0.000012   0.000033   0.000025   0.000010
     15       0.000405  -0.000294   0.000084   0.000021   0.000018  -0.000155
     16       0.000015   0.000076  -0.000325   0.000104  -0.002056  -0.000110
     17       0.000068  -0.000062  -0.000143  -0.000050   0.000237  -0.000052
     18       0.000015   0.000081   0.000162   0.000017  -0.005770  -0.000632
     19       0.000033  -0.000010  -0.000177   0.000026  -0.000016  -0.000398
     20       0.000090  -0.000121   0.000017   0.000021   0.000352   0.000094
     21      -0.000237   0.000018   0.000059  -0.000040   0.065313   0.000810
     22       0.000214   0.000007   0.000964  -0.000063   0.017928  -0.000307
     23      -0.000036  -0.000022  -0.000092   0.000005  -0.008004  -0.000056
     24       0.000023  -0.000126   0.001886   0.000242  -0.000552  -0.004574
     25      -0.000027   0.000103  -0.000498  -0.000212  -0.000995   0.000891
     26      -0.000501   0.000034  -0.000083   0.000010  -0.000008   0.000131
     27      -0.003729  -0.000011   0.073411   0.000237  -0.000423   0.001380
     28      -0.000298  -0.000012   0.055168   0.000191  -0.000517   0.001384
     29      -0.091597   0.000220  -0.003197  -0.000060  -0.000255  -0.000148
     30      -0.000058   0.000977  -0.001406  -0.002025   0.000142   0.048338
     31      -0.000016   0.000495  -0.001694  -0.003027  -0.000367   0.071852
     32      -0.000319   0.000228  -0.000010   0.000349  -0.000035  -0.000123
     33      -0.000061  -0.129801  -0.000413   0.020526  -0.000691  -0.001377
     34       0.000079   0.062536   0.000119   0.011493   0.000208   0.000978
     35      -0.000571  -0.488444  -0.001490   0.082764  -0.001551   0.000059
     36       0.000388   0.155434   0.001058  -0.285858  -0.000551  -0.016630
     37       0.001023   0.399308   0.002625  -0.712854  -0.001191  -0.035832
     38      -0.000415  -0.136426  -0.000989   0.279948   0.000508   0.013827
     39       0.000669   0.292019  -0.001079   0.226139  -0.000568   0.002739
     40      -0.001400  -0.548083   0.001912  -0.408569   0.000917  -0.009310
     41      -0.000940  -0.380309   0.001435  -0.309299   0.000718  -0.006415
     42      -0.000095  -0.005616  -0.001216  -0.010274   0.001294   0.035644
     43       0.000142   0.006669   0.001448   0.011825  -0.000438  -0.051608
     44       0.000170   0.001340   0.000160   0.001008   0.000031  -0.003735
     45       0.002490  -0.000276   0.001386   0.000123  -0.311054  -0.004738
     46      -0.003011   0.000482  -0.004296  -0.000111   0.495005   0.007201
     47       0.000874   0.000140   0.000067   0.000131   0.006547   0.000245
     48       0.000401  -0.000309  -0.005282   0.000230  -0.385596  -0.000891
     49       0.001024  -0.000595  -0.007778   0.000509  -0.705484  -0.002614
     50      -0.000581   0.000109   0.001192  -0.000197   0.083469   0.000034
     51       0.445904  -0.001014  -0.165352  -0.000643   0.000163  -0.000758
     52      -0.046044   0.000070   0.028637   0.000135  -0.001221  -0.000730
     53       0.539448  -0.001218  -0.231016  -0.000748   0.000913  -0.001614
     54       0.002501   0.000052  -0.573151  -0.001833   0.003095  -0.012714
     55       0.003840   0.000021  -0.704589  -0.002218   0.005216  -0.019115
     56      -0.016757   0.000077   0.022984   0.000090  -0.000141   0.000521
     57      -0.404263   0.000754  -0.149019  -0.000385  -0.002440  -0.001099
     58       0.045077  -0.000013   0.028416  -0.000024  -0.001085  -0.000819
     59       0.577802  -0.001185   0.246830   0.000772   0.002480   0.002457
     60       0.000324  -0.005856   0.009817   0.023130   0.004708  -0.531188
     61       0.000397  -0.008708   0.019328   0.032981   0.006033  -0.838934
     62      -0.000210   0.000520   0.000059  -0.000479   0.000084   0.001218
                 60         61         62    
      0       0.001248   0.000059  -0.000258
      1       0.000640   0.000019   0.000204
      2      -0.000064  -0.000010   0.000150
      3       0.000759  -0.000053   0.000034
      4      -0.001378   0.000049   0.000012
      5      -0.000297  -0.000007   0.000051
      6       0.051331  -0.000831   0.001097
      7      -0.070531   0.000642   0.000329
      8      -0.005024   0.000054  -0.000351
      9      -0.005297   0.001029  -0.002633
     10      -0.000819   0.000364  -0.000342
     11       0.000194  -0.000014  -0.000588
     12       0.000366  -0.000395  -0.056941
     13      -0.000059  -0.000020   0.004177
     14       0.000091   0.000124  -0.023421
     15      -0.000500  -0.001126   0.921077
     16       0.001732  -0.003579  -0.072017
     17      -0.001360  -0.002101   0.377542
     18      -0.000467   0.000788   0.000960
     19       0.000170   0.000937   0.000563
     20       0.000127  -0.000096   0.000122
     21       0.000147  -0.015008  -0.000155
     22       0.001028   0.096746   0.000053
     23      -0.000061  -0.003917  -0.000215
     24       0.000082  -0.000398  -0.000631
     25       0.000150   0.000174  -0.000295
     26       0.000014  -0.000006   0.000069
     27      -0.000141  -0.000710   0.000022
     28       0.000107   0.000031   0.000033
     29       0.000014   0.000253   0.000035
     30       0.002098   0.000182   0.000568
     31       0.005920   0.000310  -0.000224
     32      -0.000064  -0.000001  -0.000036
     33      -0.002243   0.000174  -0.000195
     34      -0.000328  -0.000021  -0.000044
     35      -0.003864   0.000377  -0.000379
     36      -0.001075  -0.000113  -0.000105
     37       0.003395  -0.000300   0.000045
     38      -0.000924   0.000099   0.000034
     39      -0.009261   0.000268  -0.000172
     40       0.012330  -0.000441  -0.000156
     41       0.009282  -0.000325  -0.000031
     42      -0.558995   0.006102  -0.000485
     43       0.819891  -0.008900   0.000782
     44       0.056987  -0.000689  -0.000754
     45       0.004725   0.453756  -0.000802
     46      -0.006432  -0.672929  -0.001995
     47      -0.000316  -0.011856  -0.002373
     48      -0.003278  -0.286306  -0.003139
     49      -0.005846  -0.495531   0.002257
     50       0.000698   0.060535   0.006752
     51       0.001507   0.004204  -0.000117
     52      -0.000331   0.000206   0.000051
     53       0.001635   0.005335  -0.000290
     54      -0.000431   0.003997  -0.000123
     55      -0.000714   0.002990   0.000337
     56       0.000006  -0.000217   0.000020
     57       0.001436   0.005896   0.000256
     58      -0.000320   0.000111   0.000243
     59      -0.001912  -0.008515  -0.000110
     60      -0.033076  -0.002651  -0.000049
     61      -0.052624  -0.004213  -0.000170
     62      -0.000059   0.000016   0.000128


-----------
IR SPECTRUM
-----------

 Mode   freq       eps      Int      T**2         TX        TY        TZ
       cm**-1   L/(mol*cm) km/mol    a.u.
----------------------------------------------------------------------------
  6:     79.55   0.000262    1.33  0.001029  ( 0.023825 -0.008294 -0.019815)
  7:    102.15   0.000007    0.04  0.000022  ( 0.001172  0.004585  0.000112)
  8:    139.26   0.000951    4.81  0.002131  (-0.029415 -0.009568  0.034270)
  9:    238.97   0.000306    1.55  0.000399  (-0.011283 -0.002211 -0.016342)
 10:    271.70   0.000227    1.15  0.000261  (-0.010989 -0.008189 -0.008545)
 11:    301.03   0.000075    0.38  0.000078  (-0.006650  0.005644  0.001210)
 12:    315.00   0.000862    4.35  0.000854  (-0.003014  0.022390 -0.018524)
 13:    330.89   0.003979   20.11  0.003753  (-0.039808 -0.014067  0.044386)
 14:    338.73   0.005846   29.54  0.005386  ( 0.028389  0.003395 -0.067592)
 15:    397.86   0.008538   43.15  0.006696  ( 0.019188 -0.020926 -0.076749)
 16:    448.05   0.001983   10.02  0.001381  (-0.036742  0.004156  0.003765)
 17:    461.59   0.000326    1.65  0.000220  ( 0.000289  0.014463 -0.003325)
 18:    513.29   0.001228    6.21  0.000747  (-0.005491  0.010306  0.024706)
 19:    539.65   0.000450    2.27  0.000260  ( 0.014337  0.003982 -0.006218)
 20:    579.36   0.000336    1.70  0.000181  ( 0.009160  0.006072 -0.007746)
 21:    594.30   0.001067    5.39  0.000560  (-0.010830  0.019040  0.008983)
 22:    695.49   0.001341    6.78  0.000602  (-0.019105 -0.008198 -0.013026)
 23:    742.49   0.001255    6.34  0.000528  (-0.000708 -0.007391 -0.021738)
 24:    805.44   0.013274   67.08  0.005143  ( 0.019750  0.001987  0.068913)
 25:    822.60   0.000354    1.79  0.000134  (-0.001639 -0.008706 -0.007476)
 26:    870.49   0.003670   18.55  0.001316  ( 0.015503  0.005763  0.032280)
 27:    902.09   0.003712   18.76  0.001284  ( 0.012275 -0.001909  0.033612)
 28:    914.83   0.000194    0.98  0.000066  ( 0.002473  0.006657  0.003962)
 29:   1015.55   0.002665   13.47  0.000819  (-0.020650 -0.019785  0.001026)
 30:   1043.01   0.003735   18.87  0.001117  (-0.030690 -0.012329  0.004849)
 31:   1063.71   0.000106    0.54  0.000031  (-0.001724 -0.001752  0.005019)
 32:   1117.71   0.002511   12.69  0.000701  ( 0.010984 -0.024024 -0.001771)
 33:   1142.19   0.010697   54.06  0.002923  (-0.034684 -0.041467 -0.000320)
 34:   1144.87   0.006569   33.20  0.001791  ( 0.040085 -0.013312 -0.002570)
 35:   1219.50   0.018354   92.75  0.004697  (-0.067980  0.008445 -0.002017)
 36:   1235.68   0.020651  104.36  0.005215  (-0.006848 -0.071741 -0.004646)
 37:   1309.50   0.000831    4.20  0.000198  (-0.006904 -0.012054 -0.002255)
 38:   1344.71   0.047814  241.63  0.011096  (-0.087438 -0.058675 -0.002815)
 39:   1406.23   0.010470   52.91  0.002323  ( 0.010780  0.046977  0.000682)
 40:   1422.64   0.010691   54.03  0.002345  ( 0.046669  0.012905  0.000783)
 41:   1425.49   0.016756   84.68  0.003668  ( 0.047978 -0.036940 -0.001299)
 42:   1463.22   0.000824    4.16  0.000176  ( 0.010540 -0.006778  0.004323)
 43:   1472.85   0.000496    2.51  0.000105  (-0.009003  0.004901  0.000005)
 44:   1474.57   0.001815    9.17  0.000384  ( 0.001429  0.000406  0.019542)
 45:   1493.67   0.002993   15.12  0.000625  (-0.016348  0.005973  0.017953)
 46:   1502.29   0.005049   25.52  0.001049  (-0.009034 -0.031091  0.000718)
 47:   1513.20   0.001457    7.36  0.000301  ( 0.006674 -0.015997 -0.000327)
 48:   1536.94   0.001746    8.83  0.000355  ( 0.000770 -0.018772  0.001268)
 49:   1652.40   0.024258  122.59  0.004581  ( 0.065341  0.017526 -0.002169)
 50:   1691.18   0.017643   89.16  0.003256  ( 0.056199 -0.009603 -0.002260)
 51:   1753.68   0.038897  196.57  0.006922  (-0.082752  0.007847  0.003470)
 52:   3051.77   0.009122   46.10  0.000933  ( 0.023242 -0.019592  0.002951)
 53:   3054.17   0.015648   79.08  0.001599  (-0.038237 -0.003336 -0.011210)
 54:   3108.32   0.002258   11.41  0.000227  (-0.000844 -0.000107 -0.015031)
 55:   3130.53   0.002871   14.51  0.000286  (-0.006183  0.000899  0.015720)
 56:   3154.88   0.002235   11.30  0.000221  ( 0.009303  0.011590 -0.000467)
 57:   3169.94   0.001276    6.45  0.000126  (-0.000598  0.011164 -0.000808)
 58:   3200.83   0.000525    2.65  0.000051  (-0.004069  0.005881  0.000110)
 59:   3223.12   0.000865    4.37  0.000084  ( 0.002732  0.008724 -0.000360)
 60:   3249.12   0.000353    1.79  0.000034  (-0.003908 -0.004299 -0.000422)
 61:   3284.49   0.001260    6.37  0.000120  ( 0.002225  0.010704 -0.000381)
 62:   3831.41   0.006691   33.81  0.000545  ( 0.021800  0.001265  0.008254)

* The epsilon (eps) is given for a Dirac delta lineshape.
** The dipole moment derivative (T) already includes vibrational overlap.

The first frequency considered to be a vibration is 6
The total number of vibrations considered is 57


--------------------------
THERMOCHEMISTRY AT 298.15K
--------------------------

Temperature         ... 298.15 K
Pressure            ... 1.00 atm
Total Mass          ... 137.18 AMU

Throughout the following assumptions are being made:
  (1) The electronic state is orbitally nondegenerate
  (2) There are no thermally accessible electronically excited states
  (3) Hindered rotations indicated by low frequency modes are not
      treated as such but are treated as vibrations and this may
      cause some error
  (4) All equations used are the standard statistical mechanics
      equations for an ideal gas
  (5) All vibrations are strictly harmonic

freq.      79.55  E(vib)   ...       0.49 
freq.     102.15  E(vib)   ...       0.46 
freq.     139.26  E(vib)   ...       0.42 
freq.     238.97  E(vib)   ...       0.32 
freq.     271.70  E(vib)   ...       0.29 
freq.     301.03  E(vib)   ...       0.26 
freq.     315.00  E(vib)   ...       0.25 
freq.     330.89  E(vib)   ...       0.24 
freq.     338.73  E(vib)   ...       0.23 
freq.     397.86  E(vib)   ...       0.20 
freq.     448.05  E(vib)   ...       0.17 
freq.     461.59  E(vib)   ...       0.16 
freq.     513.29  E(vib)   ...       0.13 
freq.     539.65  E(vib)   ...       0.12 
freq.     579.36  E(vib)   ...       0.11 
freq.     594.30  E(vib)   ...       0.10 
freq.     695.49  E(vib)   ...       0.07 
freq.     742.49  E(vib)   ...       0.06 
freq.     805.44  E(vib)   ...       0.05 
freq.     822.60  E(vib)   ...       0.05 
freq.     870.49  E(vib)   ...       0.04 
freq.     902.09  E(vib)   ...       0.03 
freq.     914.83  E(vib)   ...       0.03 
freq.    1015.55  E(vib)   ...       0.02 
freq.    1043.01  E(vib)   ...       0.02 
freq.    1063.71  E(vib)   ...       0.02 
freq.    1117.71  E(vib)   ...       0.01 
freq.    1142.19  E(vib)   ...       0.01 
freq.    1144.87  E(vib)   ...       0.01 
freq.    1219.50  E(vib)   ...       0.01 
freq.    1235.68  E(vib)   ...       0.01 
freq.    1309.50  E(vib)   ...       0.01 
freq.    1344.71  E(vib)   ...       0.01 
freq.    1406.23  E(vib)   ...       0.00 
freq.    1422.64  E(vib)   ...       0.00 
freq.    1425.49  E(vib)   ...       0.00 
freq.    1463.22  E(vib)   ...       0.00 
freq.    1472.85  E(vib)   ...       0.00 
freq.    1474.57  E(vib)   ...       0.00 
freq.    1493.67  E(vib)   ...       0.00 
freq.    1502.29  E(vib)   ...       0.00 
freq.    1513.20  E(vib)   ...       0.00 
freq.    1536.94  E(vib)   ...       0.00 
freq.    1652.40  E(vib)   ...       0.00 
freq.    1691.18  E(vib)   ...       0.00 
freq.    1753.68  E(vib)   ...       0.00 
freq.    3051.77  E(vib)   ...       0.00 
freq.    3054.17  E(vib)   ...       0.00 
freq.    3108.32  E(vib)   ...       0.00 
freq.    3130.53  E(vib)   ...       0.00 
freq.    3154.88  E(vib)   ...       0.00 
freq.    3169.94  E(vib)   ...       0.00 
freq.    3200.83  E(vib)   ...       0.00 
freq.    3223.12  E(vib)   ...       0.00 
freq.    3249.12  E(vib)   ...       0.00 
freq.    3284.49  E(vib)   ...       0.00 
freq.    3831.41  E(vib)   ...       0.00 

------------
INNER ENERGY
------------

The inner energy is: U= E(el) + E(ZPE) + E(vib) + E(rot) + E(trans)
    E(el)   - is the total energy from the electronic structure calculation
              = E(kin-el) + E(nuc-el) + E(el-el) + E(nuc-nuc)
    E(ZPE)  - the the zero temperature vibrational energy from the frequency calculation
    E(vib)  - the the finite temperature correction to E(ZPE) due to population
              of excited vibrational states
    E(rot)  - is the rotational thermal energy
    E(trans)- is the translational thermal energy

Summary of contributions to the inner energy U:
Electronic energy                ...   -441.38878961 Eh
Zero point energy                ...      0.17839919 Eh     111.95 kcal/mol
Thermal vibrational correction   ...      0.00707844 Eh       4.44 kcal/mol
Thermal rotational correction    ...      0.00141627 Eh       0.89 kcal/mol
Thermal translational correction ...      0.00141627 Eh       0.89 kcal/mol
-----------------------------------------------------------------------
Total thermal energy                   -441.20047944 Eh


Summary of corrections to the electronic energy:
(perhaps to be used in another calculation)
Total thermal correction                  0.00991098 Eh       6.22 kcal/mol
Non-thermal (ZPE) correction              0.17839919 Eh     111.95 kcal/mol
-----------------------------------------------------------------------
Total correction                          0.18831017 Eh     118.17 kcal/mol


--------
ENTHALPY
--------

The enthalpy is H = U + kB*T
                kB is Boltzmann's constant
Total free energy                 ...   -441.20047944 Eh 
Thermal Enthalpy correction       ...      0.00094421 Eh       0.59 kcal/mol
-----------------------------------------------------------------------
Total Enthalpy                    ...   -441.19953523 Eh


Note: Only C1 symmetry has been detected, increase convergence thresholds 
      if your molecule has a higher symmetry. Symmetry factor of 1.0 is   
      used for the rotational entropy correction. 
 

Note: Rotational entropy computed according to Herzberg 
Infrared and Raman Spectra, Chapter V,1, Van Nostrand Reinhold, 1945 
Point Group:  C1, Symmetry Number:   1  
Rotational constants in cm-1:     0.058538     0.044573     0.025606 

Vibrational entropy computed according to the QRRHO of S. Grimme
Chem.Eur.J. 2012 18 9955


-------
ENTROPY
-------

The entropy contributions are T*S = T*(S(el)+S(vib)+S(rot)+S(trans))
     S(el)   - electronic entropy
     S(vib)  - vibrational entropy
     S(rot)  - rotational entropy
     S(trans)- translational entropy
The entropies will be listed as multiplied by the temperature to get
units of energy

Electronic entropy                ...      0.00000000 Eh      0.00 kcal/mol
Vibrational entropy               ...      0.01168520 Eh      7.33 kcal/mol
Rotational entropy                ...      0.01404931 Eh      8.82 kcal/mol
Translational entropy             ...      0.01931898 Eh     12.12 kcal/mol
-----------------------------------------------------------------------
Final entropy term                ...      0.04505349 Eh     28.27 kcal/mol

In case the symmetry of your molecule has not been determined correctly
or in case you have a reason to use a different symmetry number we print 
out the resulting rotational entropy values for sn=1,12 :
 --------------------------------------------------------
|  sn= 1 | S(rot)=       0.01404931 Eh      8.82 kcal/mol|
|  sn= 2 | S(rot)=       0.01339486 Eh      8.41 kcal/mol|
|  sn= 3 | S(rot)=       0.01301202 Eh      8.17 kcal/mol|
|  sn= 4 | S(rot)=       0.01274040 Eh      7.99 kcal/mol|
|  sn= 5 | S(rot)=       0.01252971 Eh      7.86 kcal/mol|
|  sn= 6 | S(rot)=       0.01235757 Eh      7.75 kcal/mol|
|  sn= 7 | S(rot)=       0.01221202 Eh      7.66 kcal/mol|
|  sn= 8 | S(rot)=       0.01208594 Eh      7.58 kcal/mol|
|  sn= 9 | S(rot)=       0.01197474 Eh      7.51 kcal/mol|
|  sn=10 | S(rot)=       0.01187526 Eh      7.45 kcal/mol|
|  sn=11 | S(rot)=       0.01178527 Eh      7.40 kcal/mol|
|  sn=12 | S(rot)=       0.01170311 Eh      7.34 kcal/mol|
 --------------------------------------------------------


-------------------
GIBBS FREE ENERGY
-------------------

The Gibbs free energy is G = H - T*S

Total enthalpy                    ...   -441.19953523 Eh 
Total entropy correction          ...     -0.04505349 Eh    -28.27 kcal/mol
-----------------------------------------------------------------------
Final Gibbs free energy         ...   -441.24458872 Eh

For completeness - the Gibbs free energy minus the electronic energy
G-E(el)                           ...      0.14420089 Eh     90.49 kcal/mol


Timings for individual modules:

Sum of individual times         ...     1219.181 sec (=  20.320 min)
GTO integral calculation        ...       45.361 sec (=   0.756 min)   3.7 %
SCF iterations                  ...      624.111 sec (=  10.402 min)  51.2 %
SCF Gradient evaluation         ...      148.949 sec (=   2.482 min)  12.2 %
Geometry relaxation             ...        2.150 sec (=   0.036 min)   0.2 %
Analytical frequency calculation...      398.609 sec (=   6.643 min)  32.7 %
                             ****ORCA TERMINATED NORMALLY****
TOTAL RUN TIME: 0 days 0 hours 21 minutes 41 seconds 144 msec
